 Gaussian 09, Revision D.01,
 Gaussian 09:  ES64L-G09RevD.01 24-Apr-2013

 -------------------------------------
 # td=(NStates=1) CAM-B3LYP/6-31G(d,p)
 -------------------------------------

 --
 TD
 --
 Symbolic Z-matrix:
 Charge =  0 Multiplicity = 1

                         Standard orientation:
 ---------------------------------------------------------------------
 Center     Atomic      Atomic             Coordinates (Angstroms)
 Number     Number       Type             X           Y           Z
 ---------------------------------------------------------------------
      1         12           0       -7.224999    0.513366    0.131529
      2          6           0       -4.836003   -1.880701    0.500309
      3          6           0       -4.907207    2.906119    1.168884
      4          6           0       -9.480507    2.997193   -0.320644
      5          6           0       -9.520923   -1.845621   -0.810938
      6          7           0       -5.156125    0.435056    0.690899
      7          6           0       -4.348965   -0.677513    0.849487
      8          6           0       -2.909003   -0.363624    1.250257
      9          6           0       -3.059797    1.140960    1.711173
     10          6           0       -4.381947    1.557977    1.168932
     11          6           0       -3.039322    1.248435    3.277722
     12          6           0       -1.840962   -0.457953    0.055775
     13          6           0       -0.486867   -0.229664    0.500163
     14          6           0        0.617491   -0.641570   -0.602620
     15          8           0        0.395002   -1.102762   -1.722668
     16          8           0        1.833253   -0.356492   -0.086672
     17          7           0       -7.153711    2.612511    0.309429
     18          6           0       -6.095831    3.376878    0.710585
     19          6           0       -6.465655    4.839615    0.817213
     20          6           0       -7.826073    4.801787    0.411939
     21          6           0       -8.260602    3.400307    0.078522
     22          6           0       -5.513293    5.943117    1.184522
     23          6           0       -8.750426    5.896096    0.315387
     24          6           0       -8.376178    7.194996   -0.061581
     25          7           0       -9.257698    0.574491   -0.430717
     26          6           0       -9.913435    1.757655   -0.621286
     27          6           0      -11.222674    1.437697   -1.101643
     28          6           0      -11.305728    0.054396   -1.213320
     29          6           0      -10.063084   -0.452498   -0.767193
     30          6           0      -12.424415    2.342413   -1.258959
     31          6           0      -12.396277   -0.858883   -1.780167
     32          6           0      -12.201818   -1.294914   -3.237002
     33          7           0       -7.257398   -1.369484   -0.100442
     34          6           0       -8.305293   -2.353174   -0.479214
     35          6           0       -7.851748   -3.668358   -0.421378
     36          6           0       -6.553849   -3.569144   -0.113876
     37          6           0       -6.207434   -2.166440    0.154178
     38          6           0       -8.631142   -4.907296   -0.675212
     39          6           0       -5.295967   -4.319009    0.157872
     40          8           0       -5.091424   -5.580652    0.176352
     41          6           0       -4.159441   -3.181831    0.482141
     42          6           0       -3.477443   -3.613623    1.698725
     43          8           0       -3.733366   -3.075533    2.826206
     44          8           0       -2.593824   -4.660825    1.523681
     45          6           0       -2.000153   -5.212185    2.682695
     46          6           0        2.936791   -0.507514   -1.156774
     47          6           0        4.253518   -0.210474   -0.422371
     48          6           0        5.252219    0.470186   -0.844054
     49          6           0        5.188813    1.278868   -2.120042
     50          6           0        6.483556    0.631720   -0.050047
     51          6           0        7.629111   -0.002448   -0.812881
     52          6           0        8.866019   -0.054526   -0.084381
     53          6           0       10.172660   -0.471669   -0.755576
     54          6           0       10.025749   -1.999405   -1.149744
     55          6           0       11.498974   -0.275942    0.041333
     56          6           0       12.755244   -0.557260   -0.642832
     57          6           0       14.011836   -0.048723    0.261906
     58          6           0       15.340039   -0.210965   -0.399557
     59          6           0       15.655307   -1.678517   -0.894877
     60          6           0       16.542611    0.188222    0.568877
     61          6           0       17.771131    0.511167   -0.227324
     62          6           0       18.872936    1.207478    0.723353
     63          6           0       20.238626    1.220707    0.179949
     64          6           0       20.237666    1.914864   -1.332059
     65          6           0       21.251212    1.962009    1.057500
     66          1           0       -4.365317    3.720885    1.578652
     67          1           0      -10.316440    3.847091   -0.415816
     68          1           0      -10.172202   -2.552500   -1.358096
     69          1           0       -2.596491   -1.045816    2.052418
     70          1           0       -2.227105    1.648835    1.165609
     71          1           0       -2.068015    1.240325    3.591050
     72          1           0       -3.399997    2.205324    3.453327
     73          1           0       -3.678353    0.514663    3.613041
     74          1           0       -1.843524   -1.404857   -0.338926
     75          1           0       -2.054666    0.130680   -0.937107
     76          1           0       -0.504068    0.743905    0.711525
     77          1           0       -0.287392   -0.815195    1.332521
     78          1           0       -5.181753    6.182147    0.101439
     79          1           0       -5.903308    6.853894    1.613551
     80          1           0       -4.388124    5.684136    1.642856
     81          1           0       -9.860624    5.549731    0.538898
     82          1           0       -9.133158    7.895715   -0.011023
     83          1           0       -7.479269    7.483436   -0.520526
     84          1           0      -12.073023    3.038087   -2.078335
     85          1           0      -13.514911    1.864027   -1.510755
     86          1           0      -12.608562    2.998895   -0.272847
     87          1           0      -12.403903   -2.025103   -1.235273
     88          1           0      -13.126684   -0.363131   -1.861746
     89          1           0      -13.085256   -1.883657   -3.609688
     90          1           0      -11.928027   -0.440674   -4.043888
     91          1           0      -11.350248   -1.996046   -3.608398
     92          1           0       -9.155215   -5.022534   -1.682296
     93          1           0       -7.885341   -5.707570   -0.719224
     94          1           0       -9.520009   -5.112692    0.100690
     95          1           0       -3.429269   -3.374677   -0.410408
     96          1           0       -1.222143   -4.301964    3.040757
     97          1           0       -2.817384   -5.036386    3.634181
     98          1           0       -1.501792   -6.151338    2.247516
     99          1           0        2.860707   -1.508333   -1.400519
    100          1           0        2.659575    0.139711   -2.080456
    101          1           0        4.243627   -0.913224    0.318225
    102          1           0        4.278838    1.039304   -2.773215
    103          1           0        5.261001    2.361763   -1.760308
    104          1           0        6.105204    0.998437   -2.844820
    105          1           0        6.797998    1.610872    0.134763
    106          1           0        6.236493    0.055886    0.817863
    107          1           0        7.553919   -1.104418   -0.907499
    108          1           0        7.425288    0.321760   -1.861551
    109          1           0        9.241021    0.821223    0.097999
    110          1           0        8.740938   -0.519874    0.873435
    111          1           0       10.412185    0.238378   -1.653752
    112          1           0        9.140147   -2.111763   -1.841593
    113          1           0       10.651728   -2.620330   -1.828896
    114          1           0        9.836393   -2.677507   -0.245420
    115          1           0       11.342715    0.799002    0.323606
    116          1           0       11.215010   -0.813081    0.926557
    117          1           0       12.838763   -1.625080   -0.876709
    118          1           0       12.777653   -0.136273   -1.626237
    119          1           0       13.851607    0.986505    0.553971
    120          1           0       13.869222   -0.821040    1.084517
    121          1           0       15.221554    0.562951   -1.243702
    122          1           0       15.559417   -2.409840    0.016798
    123          1           0       14.918280   -2.034687   -1.637713
    124          1           0       16.604756   -1.777228   -1.593916
    125          1           0       16.168411    1.157638    1.118280
    126          1           0       16.861261   -0.545644    1.325310
    127          1           0       18.192885   -0.385478   -0.346897
    128          1           0       17.552363    1.117690   -0.981081
    129          1           0       18.573818    2.349679    0.834876
    130          1           0       18.877084    0.672691    1.672671
    131          1           0       20.790937    0.325130   -0.121582
    132          1           0       19.852328    2.976128   -1.169625
    133          1           0       21.289838    2.064545   -1.464821
    134          1           0       19.692897    1.229852   -2.019630
    135          1           0       21.346139    1.476331    1.995563
    136          1           0       22.388827    2.222073    0.744536
    137          1           0       20.895836    2.973817    1.128493
 ---------------------------------------------------------------------

 SCF Done:  E(RCAM-B3LYP) =  -2932.59384081     A.U. after   15 cycles

 Excitation energies and oscillator strengths:

 Excited State   1:      Singlet-A      2.0409 eV  607.50 nm  f=0.1910  <S**2>=0.000
     240 -> 243        0.24780
     241 -> 242        0.64569
 This state for optimization and/or second-order correction.
 Total Energy, E(TD-HF/TD-KS) =  -2932.51883996
 Copying the excited state density for this state as the 1-particle RhoCI density.

 The electronic state is 1-A.
 Alpha  occ. eigenvalues --  -46.83875 -19.26575 -19.26518 -19.21454 -19.21095
 Alpha  occ. eigenvalues --  -19.20887 -14.41896 -14.39970 -14.39297 -14.38438
 Alpha  occ. eigenvalues --  -10.39835 -10.39689 -10.36717 -10.33924 -10.32516
 Alpha  occ. eigenvalues --  -10.32217 -10.30556 -10.30154 -10.30039 -10.29316
 Alpha  occ. eigenvalues --  -10.29195 -10.28961 -10.28919 -10.28772 -10.28528
 Alpha  occ. eigenvalues --  -10.28491 -10.28314 -10.28275 -10.28151 -10.28132
 Alpha  occ. eigenvalues --  -10.28117 -10.28057 -10.27724 -10.27604 -10.27269
 Alpha  occ. eigenvalues --  -10.27235 -10.27095 -10.27031 -10.26960 -10.26580
 Alpha  occ. eigenvalues --  -10.26491 -10.26453 -10.26410 -10.26175 -10.25939
 Alpha  occ. eigenvalues --  -10.25844 -10.25715 -10.25687 -10.25654 -10.25631
 Alpha  occ. eigenvalues --  -10.25617 -10.25460 -10.25396 -10.25243 -10.25240
 Alpha  occ. eigenvalues --  -10.25216 -10.25148 -10.25016 -10.25007 -10.24719
 Alpha  occ. eigenvalues --  -10.24688 -10.24565 -10.24272 -10.23589 -10.22961
 Alpha  occ. eigenvalues --   -3.13001  -1.87694  -1.87272  -1.87169  -1.16730
 Alpha  occ. eigenvalues --   -1.16670  -1.08164  -1.08112  -1.07134  -1.03762
 Alpha  occ. eigenvalues --   -1.02953  -1.02364  -1.01427  -0.93519  -0.92420
 Alpha  occ. eigenvalues --   -0.91021  -0.90576  -0.89992  -0.89377  -0.88937
 Alpha  occ. eigenvalues --   -0.88208  -0.88192  -0.87654  -0.87354  -0.86367
 Alpha  occ. eigenvalues --   -0.86006  -0.83968  -0.83728  -0.83261  -0.82391
 Alpha  occ. eigenvalues --   -0.81827  -0.80873  -0.80372  -0.79524  -0.78433
 Alpha  occ. eigenvalues --   -0.77531  -0.76654  -0.76302  -0.75883  -0.74969
 Alpha  occ. eigenvalues --   -0.74702  -0.74470  -0.74241  -0.73936  -0.73040
 Alpha  occ. eigenvalues --   -0.72255  -0.71085  -0.69776  -0.69307  -0.68388
 Alpha  occ. eigenvalues --   -0.67401  -0.67079  -0.65643  -0.65373  -0.64827
 Alpha  occ. eigenvalues --   -0.63203  -0.63041  -0.62980  -0.62110  -0.61586
 Alpha  occ. eigenvalues --   -0.61215  -0.61141  -0.60320  -0.59540  -0.59249
 Alpha  occ. eigenvalues --   -0.58751  -0.58036  -0.57537  -0.56991  -0.56841
 Alpha  occ. eigenvalues --   -0.56559  -0.56247  -0.55879  -0.55620  -0.55045
 Alpha  occ. eigenvalues --   -0.54559  -0.54346  -0.54064  -0.53529  -0.53143
 Alpha  occ. eigenvalues --   -0.52793  -0.52652  -0.52497  -0.52057  -0.51820
 Alpha  occ. eigenvalues --   -0.51559  -0.51130  -0.50977  -0.50785  -0.50458
 Alpha  occ. eigenvalues --   -0.50339  -0.50102  -0.49892  -0.49723  -0.49469
 Alpha  occ. eigenvalues --   -0.49392  -0.49085  -0.48908  -0.48712  -0.48353
 Alpha  occ. eigenvalues --   -0.48118  -0.47751  -0.47534  -0.47514  -0.47104
 Alpha  occ. eigenvalues --   -0.46707  -0.46654  -0.46151  -0.46038  -0.45998
 Alpha  occ. eigenvalues --   -0.45707  -0.45485  -0.45270  -0.44928  -0.44860
 Alpha  occ. eigenvalues --   -0.44661  -0.44561  -0.44314  -0.44212  -0.43968
 Alpha  occ. eigenvalues --   -0.43934  -0.43757  -0.43571  -0.43480  -0.43390
 Alpha  occ. eigenvalues --   -0.43317  -0.43147  -0.42870  -0.42588  -0.42389
 Alpha  occ. eigenvalues --   -0.42041  -0.41989  -0.41569  -0.41502  -0.41275
 Alpha  occ. eigenvalues --   -0.40922  -0.40859  -0.40541  -0.40354  -0.40334
 Alpha  occ. eigenvalues --   -0.40187  -0.40019  -0.39574  -0.39509  -0.39057
 Alpha  occ. eigenvalues --   -0.38959  -0.38794  -0.38129  -0.38029  -0.37461
 Alpha  occ. eigenvalues --   -0.37373  -0.37214  -0.37121  -0.36760  -0.36693
 Alpha  occ. eigenvalues --   -0.36620  -0.36525  -0.36285  -0.35801  -0.34699
 Alpha  occ. eigenvalues --   -0.34374  -0.34362  -0.33943  -0.33895  -0.33332
 Alpha  occ. eigenvalues --   -0.33144  -0.32907  -0.32408  -0.31279  -0.30959
 Alpha  occ. eigenvalues --   -0.30517  -0.29936  -0.27182  -0.26425  -0.23633
 Alpha  occ. eigenvalues --   -0.20939
 Alpha virt. eigenvalues --   -0.06100  -0.03749   0.01032   0.03175   0.04543
 Alpha virt. eigenvalues --    0.05674   0.06417   0.06607   0.06825   0.07024
 Alpha virt. eigenvalues --    0.07792   0.10322   0.10961   0.11579   0.12077

 Mulliken charges:
               1
     1  Mg   0.824909
     2  C    0.087765
     3  C   -0.191735
     4  C   -0.175996
     5  C   -0.197247
     6  N   -0.632991
     7  C    0.342882
     8  C   -0.156158
     9  C   -0.175488
    10  C    0.328040
    11  C   -0.295137
    12  C   -0.197666
    13  C   -0.239686
    14  C    0.593855
    15  O   -0.481197
    16  O   -0.490076
    17  N   -0.716034
    18  C    0.305224
    19  C    0.049939
    20  C   -0.012393
    21  C    0.348391
    22  C   -0.383981
    23  C   -0.115818
    24  C   -0.247970
    25  N   -0.693972
    26  C    0.324317
    27  C   -0.000263
    28  C   -0.004826
    29  C    0.272030
    30  C   -0.365242
    31  C   -0.137255
    32  C   -0.319862
    33  N   -0.752189
    34  C    0.242454
    35  C    0.100360
    36  C    0.006897
    37  C    0.302463
    38  C   -0.388514
    39  C    0.366587
    40  O   -0.484848
    41  C   -0.346667
    42  C    0.646083
    43  O   -0.515559
    44  O   -0.447371
    45  C   -0.080809
    46  C   -0.010398
    47  C   -0.134500
    48  C    0.138934
    49  C   -0.351381
    50  C   -0.211671
    51  C   -0.179142
    52  C   -0.160062
    53  C   -0.087224
    54  C   -0.328442
    55  C   -0.157472
    56  C   -0.193442
    57  C   -0.169317
    58  C   -0.048617
    59  C   -0.316933
    60  C   -0.180565
    61  C   -0.156059
    62  C   -0.164226
    63  C   -0.076215
    64  C   -0.323162
    65  C   -0.311553
    66  H    0.060258
    67  H    0.091501
    68  H    0.096703
    69  H    0.131154
    70  H    0.106243
    71  H    0.118486
    72  H    0.116236
    73  H    0.140242
    74  H    0.122528
    75  H    0.105038
    76  H    0.132541
    77  H    0.134911
    78  H    0.133162
    79  H    0.141645
    80  H    0.108331
    81  H    0.095019
    82  H    0.102795
    83  H    0.111337
    84  H    0.120167
    85  H    0.106135
    86  H    0.102960
    87  H    0.080408
    88  H    0.082766
    89  H    0.099665
    90  H    0.086087
    91  H    0.092393
    92  H    0.122739
    93  H    0.154083
    94  H    0.123585
    95  H    0.164141
    96  H    0.087959
    97  H    0.140961
    98  H    0.142649
    99  H    0.148502
   100  H    0.122901
   101  H    0.094843
   102  H    0.105027
   103  H    0.120944
   104  H    0.106930
   105  H    0.113076
   106  H    0.104023
   107  H    0.099208
   108  H    0.086635
   109  H    0.092345
   110  H    0.096528
   111  H    0.069832
   112  H    0.091196
   113  H    0.095799
   114  H    0.090637
   115  H    0.075272
   116  H    0.092025
   117  H    0.105604
   118  H    0.089953
   119  H    0.098527
   120  H    0.087155
   121  H    0.075454
   122  H    0.098171
   123  H    0.101277
   124  H    0.096710
   125  H    0.065053
   126  H    0.090770
   127  H    0.112366
   128  H    0.104467
   129  H    0.074180
   130  H    0.087135
   131  H    0.091520
   132  H    0.086256
   133  H    0.106090
   134  H    0.109633
   135  H    0.106793
   136  H    0.077225
   137  H    0.101317
 Sum of Mulliken charges =   0.00000

 Dipole moment (field-independent basis, Debye):
    X=              3.2452    Y=              3.9936    Z=             -0.2430  Tot=              5.1516
 Quadrupole moment (field-independent basis, Debye-Ang):
   XX=           -367.7009   YY=           -391.4733   ZZ=           -401.8456
   XY=            -18.3887   XZ=              9.1528   YZ=              1.6623

 Normal termination of Gaussian 09 at Sun Jun 30 11:10:36 2019.
