 Gaussian 09, Revision D.01,
 Gaussian 09:  ES64L-G09RevD.01 24-Apr-2013

 -------------------------------------
 # td=(NStates=1) CAM-B3LYP/6-31G(d,p)
 -------------------------------------

 --
 TD
 --
 Symbolic Z-matrix:
 Charge =  0 Multiplicity = 1

                         Standard orientation:
 ---------------------------------------------------------------------
 Center     Atomic      Atomic             Coordinates (Angstroms)
 Number     Number       Type             X           Y           Z
 ---------------------------------------------------------------------
      1         12           0       -7.178870    0.624886    0.054356
      2          6           0       -4.944573   -2.015523    0.424223
      3          6           0       -4.736221    2.829528    1.236571
      4          6           0       -9.350193    3.166808   -0.449017
      5          6           0       -9.489281   -1.689591   -0.995480
      6          7           0       -5.099303    0.333407    0.616784
      7          6           0       -4.274438   -0.796941    0.740702
      8          6           0       -2.915851   -0.466705    1.117261
      9          6           0       -2.952976    0.930546    1.624912
     10          6           0       -4.406190    1.477011    1.164162
     11          6           0       -2.936208    1.093020    3.103057
     12          6           0       -1.903477   -0.641088   -0.008806
     13          6           0       -0.439348   -0.463215    0.438837
     14          6           0        0.522599   -0.569410   -0.711005
     15          8           0        0.166112   -0.920133   -1.780729
     16          8           0        1.822151   -0.323924   -0.242798
     17          7           0       -6.980378    2.622731    0.326934
     18          6           0       -6.007066    3.404533    0.813874
     19          6           0       -6.378478    4.816701    0.931749
     20          6           0       -7.785206    4.777588    0.661687
     21          6           0       -8.134487    3.467106    0.235327
     22          6           0       -5.425748    5.865768    1.452690
     23          6           0       -8.593178    6.018895    0.643716
     24          6           0       -8.302657    7.276745    0.404181
     25          7           0       -9.153873    0.673826   -0.555010
     26          6           0       -9.879070    1.786124   -0.709666
     27          6           0      -11.169954    1.512871   -1.202414
     28          6           0      -11.170910    0.139815   -1.331525
     29          6           0       -9.987951   -0.431656   -0.889726
     30          6           0      -12.251303    2.596537   -1.444944
     31          6           0      -12.383627   -0.759840   -1.758075
     32          6           0      -12.247995   -0.980757   -3.249902
     33          7           0       -7.282670   -1.383948   -0.104498
     34          6           0       -8.301865   -2.208270   -0.624587
     35          6           0       -7.806550   -3.646721   -0.547362
     36          6           0       -6.510091   -3.567359   -0.160081
     37          6           0       -6.188658   -2.191270    0.117384
     38          6           0       -8.601693   -4.876186   -0.956484
     39          6           0       -5.432195   -4.446915    0.241432
     40          8           0       -5.251522   -5.607704    0.302344
     41          6           0       -4.275363   -3.388619    0.529475
     42          6           0       -3.622009   -3.746147    1.902132
     43          8           0       -3.801167   -3.153800    3.006493
     44          8           0       -2.766222   -4.836965    1.770883
     45          6           0       -2.348779   -5.463797    3.103551
     46          6           0        2.781424   -0.592768   -1.302040
     47          6           0        4.089666   -0.357842   -0.569751
     48          6           0        5.162591    0.412191   -0.870752
     49          6           0        5.169692    1.357636   -2.059323
     50          6           0        6.432888    0.409059   -0.046740
     51          6           0        7.611234    0.049424   -0.943293
     52          6           0        8.980482    0.022111   -0.198697
     53          6           0       10.315174   -0.483502   -0.963430
     54          6           0       10.222374   -1.898812   -1.520375
     55          6           0       11.434882   -0.378924    0.017909
     56          6           0       12.861774   -0.472690   -0.735375
     57          6           0       13.986065   -0.041828    0.162755
     58          6           0       15.321225   -0.151032   -0.610266
     59          6           0       15.655053   -1.690215   -0.857446
     60          6           0       16.423141    0.471703    0.244656
     61          6           0       17.743527    0.537886   -0.255168
     62          6           0       18.614984    1.158524    0.761644
     63          6           0       20.144227    1.244810    0.305857
     64          6           0       20.386183    2.114848   -0.932884
     65          6           0       21.052649    1.813182    1.380346
     66          1           0       -3.835259    3.307416    1.750614
     67          1           0      -10.078462    3.869043   -0.531297
     68          1           0      -10.325050   -2.461519   -1.364938
     69          1           0       -2.581056   -1.155240    1.998612
     70          1           0       -2.054171    1.671597    1.475873
     71          1           0       -1.937081    0.680157    3.667812
     72          1           0       -3.110941    2.170392    3.335246
     73          1           0       -3.677519    0.455433    3.520571
     74          1           0       -1.852832   -1.675531   -0.175049
     75          1           0       -2.210770    0.015476   -0.958212
     76          1           0       -0.340179    0.477214    0.842536
     77          1           0       -0.035353   -1.120240    1.202711
     78          1           0       -4.947328    6.361240    0.542883
     79          1           0       -6.112733    6.759284    1.759001
     80          1           0       -4.745069    5.431699    2.154725
     81          1           0       -9.710835    5.830762    0.800633
     82          1           0       -8.984948    7.928575    0.359173
     83          1           0       -7.327698    7.625997    0.205409
     84          1           0      -11.998121    3.496593   -2.121748
     85          1           0      -13.126418    2.013510   -1.846443
     86          1           0      -12.469362    3.148239   -0.652297
     87          1           0      -12.094294   -1.593403   -1.190220
     88          1           0      -13.345972   -0.203069   -1.479995
     89          1           0      -13.118968   -1.612842   -3.617874
     90          1           0      -12.338615    0.124403   -3.698863
     91          1           0      -11.329032   -1.276493   -3.657027
     92          1           0       -9.116307   -4.444570   -1.906477
     93          1           0       -7.741637   -5.660579   -1.209255
     94          1           0       -9.314967   -5.290588    0.044912
     95          1           0       -3.574512   -3.376444   -0.143394
     96          1           0       -1.872874   -4.547069    3.916399
     97          1           0       -3.361298   -6.247575    3.531162
     98          1           0       -1.331841   -6.044827    2.620822
     99          1           0        2.723787   -1.733012   -1.494826
    100          1           0        2.520489    0.156518   -2.197332
    101          1           0        4.116506   -0.912366    0.369471
    102          1           0        4.080941    1.496472   -2.462083
    103          1           0        5.464323    2.632646   -1.791156
    104          1           0        6.067272    1.056388   -2.668803
    105          1           0        6.437990    1.496089    0.477505
    106          1           0        6.586487   -0.301251    0.858290
    107          1           0        7.457364   -1.028940   -1.303753
    108          1           0        7.926559    0.468833   -1.965640
    109          1           0        9.077481    1.201199    0.392748
    110          1           0        8.889876   -0.628032    0.745079
    111          1           0       10.398780    0.138944   -1.757559
    112          1           0        9.377321   -2.051421   -2.151854
    113          1           0       11.106289   -2.123087   -2.186746
    114          1           0       10.026382   -2.562138   -0.762457
    115          1           0       11.452614    0.588667    0.316513
    116          1           0       11.383350   -1.066840    0.906223
    117          1           0       12.788616   -1.538676   -1.027089
    118          1           0       13.029127   -0.008558   -1.618865
    119          1           0       14.088231    0.831551    0.637791
    120          1           0       13.843876   -0.699869    1.074110
    121          1           0       15.260115    0.387754   -1.610224
    122          1           0       15.693627   -2.235776    0.221451
    123          1           0       14.797836   -2.128086   -1.294127
    124          1           0       16.591358   -1.858240   -1.258916
    125          1           0       16.079844    1.434230    0.503993
    126          1           0       16.284774   -0.366313    1.250359
    127          1           0       18.125515   -0.456467   -0.624181
    128          1           0       17.605629    1.258187   -1.076939
    129          1           0       18.176077    2.054396    0.885459
    130          1           0       18.632317    0.476118    1.652337
    131          1           0       20.556576    0.077892    0.068790
    132          1           0       20.077999    3.219499   -0.570617
    133          1           0       21.481323    2.164156   -0.877431
    134          1           0       19.922155    1.927330   -1.885647
    135          1           0       20.926435    1.033115    2.233486
    136          1           0       22.107259    1.635159    1.131830
    137          1           0       20.694730    2.826252    1.460662
 ---------------------------------------------------------------------

 SCF Done:  E(RCAM-B3LYP) =  -2932.52738397     A.U. after   18 cycles

 Excitation energies and oscillator strengths:

 Excited State   1:      Singlet-A      2.0382 eV  608.29 nm  f=0.2058  <S**2>=0.000
     240 -> 242       -0.10187
     240 -> 243        0.26133
     241 -> 242        0.63628
     241 -> 243        0.10267
 This state for optimization and/or second-order correction.
 Total Energy, E(TD-HF/TD-KS) =  -2932.45247973
 Copying the excited state density for this state as the 1-particle RhoCI density.

 The electronic state is 1-A.
 Alpha  occ. eigenvalues --  -46.83986 -19.26481 -19.26106 -19.22149 -19.21578
 Alpha  occ. eigenvalues --  -19.20965 -14.41930 -14.40297 -14.39123 -14.38292
 Alpha  occ. eigenvalues --  -10.39907 -10.39171 -10.37030 -10.35556 -10.33555
 Alpha  occ. eigenvalues --  -10.31830 -10.31497 -10.30871 -10.30202 -10.29845
 Alpha  occ. eigenvalues --  -10.29411 -10.29355 -10.28785 -10.28527 -10.28431
 Alpha  occ. eigenvalues --  -10.28297 -10.28201 -10.28031 -10.27900 -10.27875
 Alpha  occ. eigenvalues --  -10.27851 -10.27777 -10.27694 -10.27636 -10.27562
 Alpha  occ. eigenvalues --  -10.27485 -10.27466 -10.27400 -10.27198 -10.27181
 Alpha  occ. eigenvalues --  -10.27174 -10.27140 -10.26479 -10.26113 -10.26063
 Alpha  occ. eigenvalues --  -10.26016 -10.25970 -10.25963 -10.25945 -10.25634
 Alpha  occ. eigenvalues --  -10.25470 -10.25450 -10.25368 -10.25177 -10.25097
 Alpha  occ. eigenvalues --  -10.25089 -10.24859 -10.24380 -10.24368 -10.24212
 Alpha  occ. eigenvalues --  -10.24118 -10.24093 -10.24080 -10.24058 -10.23809
 Alpha  occ. eigenvalues --   -3.12976  -1.87686  -1.87213  -1.87154  -1.18038
 Alpha  occ. eigenvalues --   -1.14844  -1.13935  -1.10918  -1.06140  -1.03528
 Alpha  occ. eigenvalues --   -1.02962  -1.02338  -1.01170  -0.93264  -0.91792
 Alpha  occ. eigenvalues --   -0.90892  -0.90616  -0.89813  -0.89255  -0.88409
 Alpha  occ. eigenvalues --   -0.88196  -0.87866  -0.87045  -0.86744  -0.86283
 Alpha  occ. eigenvalues --   -0.85571  -0.84605  -0.83910  -0.83318  -0.82825
 Alpha  occ. eigenvalues --   -0.81168  -0.80637  -0.79939  -0.79519  -0.78311
 Alpha  occ. eigenvalues --   -0.78155  -0.76926  -0.75997  -0.75126  -0.74754
 Alpha  occ. eigenvalues --   -0.74672  -0.74434  -0.74120  -0.72749  -0.71738
 Alpha  occ. eigenvalues --   -0.71496  -0.70664  -0.69180  -0.69006  -0.68518
 Alpha  occ. eigenvalues --   -0.67908  -0.65803  -0.65419  -0.65250  -0.63991
 Alpha  occ. eigenvalues --   -0.63495  -0.62707  -0.62232  -0.62120  -0.60952
 Alpha  occ. eigenvalues --   -0.60806  -0.60470  -0.60196  -0.59748  -0.58885
 Alpha  occ. eigenvalues --   -0.58338  -0.57811  -0.57346  -0.56997  -0.56737
 Alpha  occ. eigenvalues --   -0.56242  -0.55936  -0.55263  -0.54882  -0.54692
 Alpha  occ. eigenvalues --   -0.54521  -0.54265  -0.53549  -0.53498  -0.52589
 Alpha  occ. eigenvalues --   -0.52511  -0.52349  -0.52319  -0.52154  -0.51788
 Alpha  occ. eigenvalues --   -0.51701  -0.51569  -0.51152  -0.51018  -0.50875
 Alpha  occ. eigenvalues --   -0.50456  -0.50186  -0.50142  -0.49741  -0.49561
 Alpha  occ. eigenvalues --   -0.49358  -0.49258  -0.48993  -0.48804  -0.48509
 Alpha  occ. eigenvalues --   -0.48429  -0.47896  -0.47661  -0.47317  -0.46911
 Alpha  occ. eigenvalues --   -0.46574  -0.46403  -0.46023  -0.45955  -0.45707
 Alpha  occ. eigenvalues --   -0.45576  -0.45534  -0.45193  -0.45107  -0.44800
 Alpha  occ. eigenvalues --   -0.44706  -0.44571  -0.44315  -0.44124  -0.44095
 Alpha  occ. eigenvalues --   -0.43946  -0.43939  -0.43773  -0.43381  -0.43356
 Alpha  occ. eigenvalues --   -0.43203  -0.43094  -0.42859  -0.42579  -0.42297
 Alpha  occ. eigenvalues --   -0.41986  -0.41623  -0.41512  -0.41231  -0.40889
 Alpha  occ. eigenvalues --   -0.40640  -0.40370  -0.40147  -0.40118  -0.40051
 Alpha  occ. eigenvalues --   -0.39604  -0.39494  -0.39297  -0.38980  -0.38891
 Alpha  occ. eigenvalues --   -0.38797  -0.38639  -0.38578  -0.38113  -0.37465
 Alpha  occ. eigenvalues --   -0.37401  -0.37371  -0.36905  -0.36710  -0.36593
 Alpha  occ. eigenvalues --   -0.36511  -0.36278  -0.35983  -0.35526  -0.35313
 Alpha  occ. eigenvalues --   -0.35248  -0.35195  -0.34464  -0.34330  -0.33583
 Alpha  occ. eigenvalues --   -0.33098  -0.32217  -0.31915  -0.31047  -0.30415
 Alpha  occ. eigenvalues --   -0.30044  -0.29343  -0.27929  -0.27328  -0.23680
 Alpha  occ. eigenvalues --   -0.21001
 Alpha virt. eigenvalues --   -0.06145  -0.03986   0.00892   0.04570   0.04986
 Alpha virt. eigenvalues --    0.05648   0.06275   0.06494   0.06994   0.07104
 Alpha virt. eigenvalues --    0.08000   0.09255   0.10636   0.11367   0.11464

 Mulliken charges:
               1
     1  Mg   0.812886
     2  C    0.018480
     3  C   -0.203419
     4  C   -0.124938
     5  C   -0.211995
     6  N   -0.646476
     7  C    0.336869
     8  C   -0.169353
     9  C   -0.147675
    10  C    0.323523
    11  C   -0.295996
    12  C   -0.156449
    13  C   -0.280815
    14  C    0.613192
    15  O   -0.437889
    16  O   -0.500843
    17  N   -0.684831
    18  C    0.300825
    19  C    0.030546
    20  C   -0.019253
    21  C    0.292902
    22  C   -0.367260
    23  C   -0.088119
    24  C   -0.210339
    25  N   -0.694964
    26  C    0.272979
    27  C    0.026313
    28  C   -0.038401
    29  C    0.295049
    30  C   -0.364616
    31  C   -0.214599
    32  C   -0.296938
    33  N   -0.743519
    34  C    0.284607
    35  C    0.021536
    36  C   -0.008554
    37  C    0.348990
    38  C   -0.352385
    39  C    0.384173
    40  O   -0.422136
    41  C   -0.291618
    42  C    0.595988
    43  O   -0.494551
    44  O   -0.466201
    45  C   -0.054974
    46  C    0.012018
    47  C   -0.136918
    48  C    0.124703
    49  C   -0.332434
    50  C   -0.202168
    51  C   -0.188940
    52  C   -0.167284
    53  C   -0.061813
    54  C   -0.320049
    55  C   -0.176354
    56  C   -0.203549
    57  C   -0.153003
    58  C   -0.079937
    59  C   -0.299593
    60  C   -0.143785
    61  C   -0.170361
    62  C   -0.138137
    63  C   -0.065749
    64  C   -0.292840
    65  C   -0.296535
    66  H    0.087424
    67  H    0.082339
    68  H    0.087134
    69  H    0.130718
    70  H    0.100983
    71  H    0.077151
    72  H    0.100523
    73  H    0.132452
    74  H    0.122030
    75  H    0.120096
    76  H    0.135589
    77  H    0.140420
    78  H    0.126237
    79  H    0.115533
    80  H    0.130467
    81  H    0.077236
    82  H    0.096796
    83  H    0.095679
    84  H    0.106188
    85  H    0.107324
    86  H    0.135724
    87  H    0.107724
    88  H    0.101714
    89  H    0.093573
    90  H    0.085970
    91  H    0.124639
    92  H    0.125003
    93  H    0.139114
    94  H    0.116359
    95  H    0.158457
    96  H    0.126269
    97  H    0.126588
    98  H    0.115969
    99  H    0.127402
   100  H    0.118573
   101  H    0.095734
   102  H    0.108389
   103  H    0.063275
   104  H    0.128624
   105  H    0.092623
   106  H    0.104447
   107  H    0.097585
   108  H    0.095909
   109  H    0.039580
   110  H    0.073470
   111  H    0.098272
   112  H    0.098325
   113  H    0.104027
   114  H    0.112038
   115  H    0.108269
   116  H    0.092100
   117  H    0.101465
   118  H    0.097313
   119  H    0.094932
   120  H    0.079459
   121  H    0.071416
   122  H    0.070587
   123  H    0.106785
   124  H    0.108144
   125  H    0.085649
   126  H    0.032468
   127  H    0.089485
   128  H    0.087623
   129  H    0.090585
   130  H    0.089535
   131  H    0.041796
   132  H    0.065300
   133  H    0.105208
   134  H    0.110835
   135  H    0.090096
   136  H    0.106822
   137  H    0.109405
 Sum of Mulliken charges =   0.00000

 Dipole moment (field-independent basis, Debye):
    X=              2.1025    Y=              3.4211    Z=             -0.0069  Tot=              4.0155
 Quadrupole moment (field-independent basis, Debye-Ang):
   XX=           -367.1436   YY=           -385.9590   ZZ=           -403.0966
   XY=            -19.3636   XZ=              1.3654   YZ=             -2.6784

 Normal termination of Gaussian 09 at Wed Jun 26 21:36:16 2019.
