 Gaussian 09, Revision D.01,
 Gaussian 09:  ES64L-G09RevD.01 24-Apr-2013

 -------------------------------------
 # td=(NStates=1) CAM-B3LYP/6-31G(d,p)
 -------------------------------------

 --
 TD
 --
 Symbolic Z-matrix:
 Charge =  0 Multiplicity = 1

                         Standard orientation:
 ---------------------------------------------------------------------
 Center     Atomic      Atomic             Coordinates (Angstroms)
 Number     Number       Type             X           Y           Z
 ---------------------------------------------------------------------
      1         12           0       -7.175631    0.537789    0.146078
      2          6           0       -4.844239   -1.947837    0.555723
      3          6           0       -4.788080    2.741870    1.293608
      4          6           0       -9.447078    3.064169   -0.327950
      5          6           0       -9.521248   -1.835996   -0.822055
      6          7           0       -5.118051    0.399924    0.842595
      7          6           0       -4.377743   -0.751596    0.792532
      8          6           0       -2.824128   -0.369821    1.223140
      9          6           0       -3.009069    1.049290    1.762560
     10          6           0       -4.399391    1.473965    1.233134
     11          6           0       -2.993136    1.172891    3.312820
     12          6           0       -1.857908   -0.500925    0.053992
     13          6           0       -0.453086   -0.343697    0.443619
     14          6           0        0.560410   -0.482984   -0.658010
     15          8           0        0.160952   -0.753426   -1.861212
     16          8           0        1.740041   -0.400348   -0.234968
     17          7           0       -7.058181    2.495296    0.388245
     18          6           0       -6.019948    3.310658    0.845316
     19          6           0       -6.326210    4.663790    0.776569
     20          6           0       -7.670215    4.801256    0.417515
     21          6           0       -8.043448    3.510074   -0.028021
     22          6           0       -5.717141    5.829403    1.430010
     23          6           0       -8.542777    6.000856    0.366528
     24          6           0       -8.256659    7.274389   -0.030595
     25          7           0       -9.083995    0.691367   -0.524353
     26          6           0       -9.889546    1.750561   -0.679108
     27          6           0      -11.186556    1.497396   -1.133588
     28          6           0      -11.257628    0.095141   -1.197613
     29          6           0       -9.944709   -0.365005   -0.772676
     30          6           0      -12.175523    2.471478   -1.336063
     31          6           0      -12.511340   -0.810944   -1.712801
     32          6           0      -12.410621   -1.192235   -3.155151
     33          7           0       -7.206967   -1.446186   -0.156540
     34          6           0       -8.280847   -2.293160   -0.459755
     35          6           0       -7.841633   -3.651005   -0.513649
     36          6           0       -6.552777   -3.591233   -0.144116
     37          6           0       -6.164978   -2.216161    0.163487
     38          6           0       -8.528796   -4.927779   -0.892000
     39          6           0       -5.372750   -4.338231    0.221689
     40          8           0       -5.218798   -5.501647    0.203443
     41          6           0       -4.114752   -3.278985    0.524633
     42          6           0       -3.529266   -3.728711    1.822043
     43          8           0       -3.757980   -3.152976    2.925276
     44          8           0       -2.640166   -4.685875    1.723150
     45          6           0       -1.969774   -5.044278    2.803570
     46          6           0        2.810034   -0.448374   -1.373079
     47          6           0        4.108130   -0.364001   -0.646904
     48          6           0        5.167203    0.427739   -0.976556
     49          6           0        5.110968    1.406207   -2.165286
     50          6           0        6.456565    0.383955   -0.184973
     51          6           0        7.573910   -0.116583   -1.022033
     52          6           0        8.925019   -0.123041   -0.220587
     53          6           0       10.158344   -0.594805   -0.860509
     54          6           0        9.971704   -1.939965   -1.458262
     55          6           0       11.345439   -0.317649   -0.010070
     56          6           0       12.705797   -0.602032   -0.639511
     57          6           0       13.914940   -0.197090    0.168507
     58          6           0       15.371899   -0.216597   -0.460465
     59          6           0       15.536088   -1.599553   -1.056838
     60          6           0       16.424652    0.220339    0.539820
     61          6           0       17.800664    0.483025   -0.158155
     62          6           0       18.766861    1.236198    0.761133
     63          6           0       20.254947    1.367191    0.259711
     64          6           0       20.359821    2.145146   -0.975892
     65          6           0       21.215403    1.798532    1.348464
     66          1           0       -3.890435    3.478886    1.631357
     67          1           0      -10.115158    4.041975   -0.507469
     68          1           0      -10.259937   -2.651598   -1.147184
     69          1           0       -2.749590   -1.130686    1.891981
     70          1           0       -2.193656    1.915266    1.342790
     71          1           0       -2.110775    0.799765    3.588625
     72          1           0       -3.343160    2.351431    3.535909
     73          1           0       -3.774143    0.579052    3.725187
     74          1           0       -2.007501   -1.473775   -0.377479
     75          1           0       -2.068336    0.199082   -0.585845
     76          1           0       -0.279810    0.722205    0.781638
     77          1           0       -0.047205   -0.964482    1.346832
     78          1           0       -4.790950    6.278441    0.697253
     79          1           0       -6.444194    6.462174    1.973357
     80          1           0       -5.019134    5.557296    2.294700
     81          1           0       -9.673452    5.913089    0.505436
     82          1           0       -9.079946    7.974323   -0.059729
     83          1           0       -7.247116    7.445815   -0.500527
     84          1           0      -12.084554    3.060834   -2.388061
     85          1           0      -13.269648    1.857889   -1.200950
     86          1           0      -12.014418    3.398188   -0.653346
     87          1           0      -12.527404   -1.730408   -1.115667
     88          1           0      -13.270375   -0.159335   -1.353972
     89          1           0      -13.167947   -1.723874   -3.480917
     90          1           0      -12.319936   -0.406488   -4.011057
     91          1           0      -11.528243   -1.781419   -3.511552
     92          1           0       -8.638852   -5.031075   -1.926628
     93          1           0       -7.973630   -5.696336   -0.616144
     94          1           0       -9.476623   -4.930563   -0.419438
     95          1           0       -3.417182   -3.401400   -0.178543
     96          1           0       -1.354102   -4.313973    3.363744
     97          1           0       -2.575605   -5.368568    3.644787
     98          1           0       -1.257660   -5.811093    2.580945
     99          1           0        2.484351   -1.495783   -2.135363
    100          1           0        2.563519    0.306440   -2.168061
    101          1           0        4.061694   -1.146978    0.235815
    102          1           0        4.042857    1.531295   -2.476043
    103          1           0        5.398371    2.448441   -1.598309
    104          1           0        5.808810    1.202991   -2.920549
    105          1           0        6.607973    1.378581    0.292528
    106          1           0        6.280588   -0.100057    0.712983
    107          1           0        7.306939   -1.059103   -1.510247
    108          1           0        7.964514    0.586466   -1.815728
    109          1           0        8.937412    0.988531    0.156634
    110          1           0        8.769816   -0.637576    0.798552
    111          1           0       10.297658    0.086594   -1.778572
    112          1           0        9.231081   -1.956613   -2.195932
    113          1           0       11.049536   -2.474373   -1.750022
    114          1           0        9.754169   -2.492257   -0.609620
    115          1           0       11.235896    0.642008    0.414200
    116          1           0       11.342636   -1.013243    0.842407
    117          1           0       12.901702   -1.716379   -0.818702
    118          1           0       12.970659   -0.065563   -1.609000
    119          1           0       13.866101    0.757143    0.498677
    120          1           0       13.997277   -0.771597    0.943833
    121          1           0       15.394755    0.551838   -1.336800
    122          1           0       15.452425   -2.353541   -0.264716
    123          1           0       14.608684   -1.742014   -1.879651
    124          1           0       16.401562   -1.815489   -1.571740
    125          1           0       16.072737    1.177265    1.166123
    126          1           0       16.627973   -0.737681    1.501070
    127          1           0       18.397879   -0.565066   -0.421123
    128          1           0       17.530067    0.868919   -1.245208
    129          1           0       18.279236    2.301233    1.086762
    130          1           0       18.950644    0.729996    1.669133
    131          1           0       20.631061    0.343715    0.120504
    132          1           0       19.807957    3.165390   -0.685950
    133          1           0       21.440255    2.506119   -1.357474
    134          1           0       19.797361    1.913403   -1.779186
    135          1           0       21.246217    1.078118    2.042372
    136          1           0       22.190042    1.841298    0.951308
    137          1           0       21.078997    2.883319    1.689862
 ---------------------------------------------------------------------

 SCF Done:  E(RCAM-B3LYP) =  -2932.59454165     A.U. after   17 cycles

 Excitation energies and oscillator strengths:

 Excited State   1:      Singlet-A      2.0994 eV  590.57 nm  f=0.2127  <S**2>=0.000
     240 -> 242       -0.18182
     240 -> 243        0.22103
     241 -> 242        0.62006
     241 -> 243        0.15324
 This state for optimization and/or second-order correction.
 Total Energy, E(TD-HF/TD-KS) =  -2932.51739008
 Copying the excited state density for this state as the 1-particle RhoCI density.

 The electronic state is 1-A.
 Alpha  occ. eigenvalues --  -46.83234 -19.27947 -19.27771 -19.21417 -19.19825
 Alpha  occ. eigenvalues --  -19.18366 -14.40138 -14.39629 -14.39559 -14.39011
 Alpha  occ. eigenvalues --  -10.39238 -10.38116 -10.35632 -10.35111 -10.30165
 Alpha  occ. eigenvalues --  -10.30069 -10.30004 -10.29678 -10.29576 -10.29572
 Alpha  occ. eigenvalues --  -10.29478 -10.29362 -10.29266 -10.28979 -10.28969
 Alpha  occ. eigenvalues --  -10.28878 -10.28773 -10.28366 -10.28096 -10.28078
 Alpha  occ. eigenvalues --  -10.28070 -10.27976 -10.27923 -10.27877 -10.27682
 Alpha  occ. eigenvalues --  -10.27462 -10.26990 -10.26951 -10.26804 -10.26768
 Alpha  occ. eigenvalues --  -10.26762 -10.26722 -10.26561 -10.26545 -10.26206
 Alpha  occ. eigenvalues --  -10.26183 -10.26108 -10.25823 -10.25745 -10.25744
 Alpha  occ. eigenvalues --  -10.25732 -10.25502 -10.25397 -10.25368 -10.25171
 Alpha  occ. eigenvalues --  -10.25067 -10.25012 -10.24987 -10.24922 -10.24875
 Alpha  occ. eigenvalues --  -10.24745 -10.24672 -10.23963 -10.23378 -10.22368
 Alpha  occ. eigenvalues --   -3.12434  -1.87128  -1.86674  -1.86632  -1.21798
 Alpha  occ. eigenvalues --   -1.19456  -1.14379  -1.07247  -1.04807  -1.04242
 Alpha  occ. eigenvalues --   -1.03502  -1.02464  -1.00566  -0.92732  -0.92637
 Alpha  occ. eigenvalues --   -0.91213  -0.90187  -0.89926  -0.89280  -0.89141
 Alpha  occ. eigenvalues --   -0.88516  -0.88282  -0.87135  -0.86720  -0.86247
 Alpha  occ. eigenvalues --   -0.85354  -0.84674  -0.84277  -0.83748  -0.82892
 Alpha  occ. eigenvalues --   -0.81733  -0.81338  -0.81004  -0.80626  -0.78814
 Alpha  occ. eigenvalues --   -0.77366  -0.77186  -0.76843  -0.76729  -0.76437
 Alpha  occ. eigenvalues --   -0.75841  -0.75211  -0.74672  -0.73174  -0.72678
 Alpha  occ. eigenvalues --   -0.71469  -0.70752  -0.70304  -0.69135  -0.67998
 Alpha  occ. eigenvalues --   -0.67235  -0.66536  -0.66020  -0.64643  -0.64635
 Alpha  occ. eigenvalues --   -0.64312  -0.63144  -0.62966  -0.62248  -0.62202
 Alpha  occ. eigenvalues --   -0.61449  -0.60099  -0.59948  -0.59415  -0.58825
 Alpha  occ. eigenvalues --   -0.58613  -0.57980  -0.57527  -0.56932  -0.56710
 Alpha  occ. eigenvalues --   -0.56077  -0.55880  -0.55678  -0.55245  -0.54795
 Alpha  occ. eigenvalues --   -0.54518  -0.54246  -0.54100  -0.53749  -0.53564
 Alpha  occ. eigenvalues --   -0.53277  -0.52872  -0.52261  -0.52240  -0.51916
 Alpha  occ. eigenvalues --   -0.51756  -0.51506  -0.51414  -0.50948  -0.50428
 Alpha  occ. eigenvalues --   -0.50269  -0.50120  -0.50040  -0.49967  -0.49570
 Alpha  occ. eigenvalues --   -0.49400  -0.49265  -0.49147  -0.48818  -0.48568
 Alpha  occ. eigenvalues --   -0.48325  -0.48219  -0.47737  -0.47490  -0.47211
 Alpha  occ. eigenvalues --   -0.47182  -0.47149  -0.46802  -0.46710  -0.46614
 Alpha  occ. eigenvalues --   -0.46297  -0.45764  -0.45680  -0.45475  -0.45196
 Alpha  occ. eigenvalues --   -0.44708  -0.44490  -0.44378  -0.44183  -0.43799
 Alpha  occ. eigenvalues --   -0.43694  -0.43410  -0.43396  -0.43228  -0.42973
 Alpha  occ. eigenvalues --   -0.42951  -0.42698  -0.42587  -0.42091  -0.41833
 Alpha  occ. eigenvalues --   -0.41620  -0.41610  -0.41500  -0.41262  -0.41182
 Alpha  occ. eigenvalues --   -0.40900  -0.40773  -0.40626  -0.40424  -0.39967
 Alpha  occ. eigenvalues --   -0.39794  -0.39699  -0.39341  -0.39157  -0.39045
 Alpha  occ. eigenvalues --   -0.38875  -0.38657  -0.38197  -0.37769  -0.37747
 Alpha  occ. eigenvalues --   -0.37360  -0.37311  -0.36758  -0.36440  -0.36303
 Alpha  occ. eigenvalues --   -0.36276  -0.35945  -0.35712  -0.35331  -0.35258
 Alpha  occ. eigenvalues --   -0.34992  -0.34822  -0.34574  -0.34477  -0.33147
 Alpha  occ. eigenvalues --   -0.32806  -0.31912  -0.31644  -0.31363  -0.30404
 Alpha  occ. eigenvalues --   -0.30114  -0.29691  -0.28059  -0.26810  -0.23265
 Alpha  occ. eigenvalues --   -0.21397
 Alpha virt. eigenvalues --   -0.06423  -0.03434   0.02502   0.04042   0.04304
 Alpha virt. eigenvalues --    0.05275   0.06614   0.07066   0.07308   0.07452
 Alpha virt. eigenvalues --    0.08835   0.10724   0.10855   0.10906   0.11275

 Mulliken charges:
               1
     1  Mg   0.814815
     2  C    0.122586
     3  C   -0.226227
     4  C   -0.170121
     5  C   -0.178988
     6  N   -0.651927
     7  C    0.258913
     8  C   -0.138974
     9  C   -0.159485
    10  C    0.391394
    11  C   -0.280666
    12  C   -0.123085
    13  C   -0.277290
    14  C    0.617311
    15  O   -0.553139
    16  O   -0.434664
    17  N   -0.673255
    18  C    0.337549
    19  C    0.010268
    20  C    0.051405
    21  C    0.189302
    22  C   -0.378125
    23  C   -0.110080
    24  C   -0.226690
    25  N   -0.658433
    26  C    0.297244
    27  C    0.116399
    28  C   -0.043497
    29  C    0.230062
    30  C   -0.390991
    31  C   -0.199070
    32  C   -0.312073
    33  N   -0.740052
    34  C    0.280269
    35  C    0.011627
    36  C    0.017410
    37  C    0.291213
    38  C   -0.353385
    39  C    0.348536
    40  O   -0.421906
    41  C   -0.332780
    42  C    0.616668
    43  O   -0.511507
    44  O   -0.377332
    45  C   -0.099913
    46  C   -0.015670
    47  C   -0.121742
    48  C    0.086127
    49  C   -0.342400
    50  C   -0.213118
    51  C   -0.180274
    52  C   -0.182068
    53  C   -0.047063
    54  C   -0.298575
    55  C   -0.164155
    56  C   -0.191394
    57  C   -0.165014
    58  C   -0.076243
    59  C   -0.290867
    60  C   -0.131426
    61  C   -0.161157
    62  C   -0.155684
    63  C   -0.064123
    64  C   -0.288383
    65  C   -0.307251
    66  H    0.075894
    67  H    0.086985
    68  H    0.104482
    69  H    0.120066
    70  H    0.069077
    71  H    0.117866
    72  H    0.083368
    73  H    0.131406
    74  H    0.112846
    75  H    0.122438
    76  H    0.121542
    77  H    0.115723
    78  H    0.083227
    79  H    0.136130
    80  H    0.101002
    81  H    0.090765
    82  H    0.108304
    83  H    0.114154
    84  H    0.109312
    85  H    0.088424
    86  H    0.113054
    87  H    0.109204
    88  H    0.109168
    89  H    0.120116
    90  H    0.096527
    91  H    0.106894
    92  H    0.138277
    93  H    0.152696
    94  H    0.123057
    95  H    0.158304
    96  H    0.108472
    97  H    0.123824
    98  H    0.116017
    99  H    0.121558
   100  H    0.146131
   101  H    0.102768
   102  H    0.112289
   103  H    0.094830
   104  H    0.140050
   105  H    0.099532
   106  H    0.115417
   107  H    0.107974
   108  H    0.100405
   109  H    0.076738
   110  H    0.072151
   111  H    0.066681
   112  H    0.114597
   113  H    0.079143
   114  H    0.108871
   115  H    0.101139
   116  H    0.087143
   117  H    0.092324
   118  H    0.081340
   119  H    0.088013
   120  H    0.099964
   121  H    0.071620
   122  H    0.100430
   123  H    0.074662
   124  H    0.106568
   125  H    0.085153
   126  H    0.030391
   127  H    0.073588
   128  H    0.088651
   129  H    0.066135
   130  H    0.103835
   131  H    0.082353
   132  H    0.070184
   133  H    0.079519
   134  H    0.116198
   135  H    0.108199
   136  H    0.106075
   137  H    0.089930
 Sum of Mulliken charges =   0.00000

 Dipole moment (field-independent basis, Debye):
    X=              2.3252    Y=              2.0435    Z=             -0.4597  Tot=              3.1295
 Quadrupole moment (field-independent basis, Debye-Ang):
   XX=           -322.2098   YY=           -391.2544   ZZ=           -402.3932
   XY=             -8.6584   XZ=             16.9764   YZ=              0.3829

 Normal termination of Gaussian 09 at Sun Jun 30 23:40:23 2019.
