 Gaussian 09, Revision D.01,
 Gaussian 09:  ES64L-G09RevD.01 24-Apr-2013

 -------------------------------------
 # td=(NStates=1) CAM-B3LYP/6-31G(d,p)
 -------------------------------------

 --
 TD
 --
 Symbolic Z-matrix:
 Charge =  0 Multiplicity = 1

                         Standard orientation:
 ---------------------------------------------------------------------
 Center     Atomic      Atomic             Coordinates (Angstroms)
 Number     Number       Type             X           Y           Z
 ---------------------------------------------------------------------
      1         12           0       -7.112466    0.594422    0.021165
      2          6           0       -4.815358   -1.951120    0.370589
      3          6           0       -4.733546    2.759789    1.183372
      4          6           0       -9.356109    3.139008   -0.293239
      5          6           0       -9.427194   -1.735752   -0.771827
      6          7           0       -5.018529    0.391153    0.627294
      7          6           0       -4.394972   -0.727265    0.774508
      8          6           0       -2.939903   -0.483196    1.271600
      9          6           0       -3.038216    0.943141    1.727774
     10          6           0       -4.320053    1.468206    1.170701
     11          6           0       -2.918142    1.018886    3.247019
     12          6           0       -1.867130   -0.664329    0.056888
     13          6           0       -0.418375   -0.403153    0.470863
     14          6           0        0.481649   -0.646458   -0.575421
     15          8           0        0.174057   -0.985264   -1.756054
     16          8           0        1.742815   -0.410987   -0.300368
     17          7           0       -7.060365    2.610849    0.380178
     18          6           0       -6.013009    3.262597    0.922140
     19          6           0       -6.442048    4.729469    0.972929
     20          6           0       -7.677069    4.872205    0.491663
     21          6           0       -8.133647    3.482347    0.118735
     22          6           0       -5.593447    5.724802    1.645083
     23          6           0       -8.648803    6.030438    0.349177
     24          6           0       -8.255695    7.238652    0.151876
     25          7           0       -9.070441    0.704724   -0.581142
     26          6           0       -9.870146    1.858841   -0.676912
     27          6           0      -11.205400    1.548577   -1.134496
     28          6           0      -11.141582    0.146107   -1.306304
     29          6           0       -9.799185   -0.352462   -0.895276
     30          6           0      -12.231712    2.524645   -1.479953
     31          6           0      -12.363566   -0.643990   -1.786220
     32          6           0      -12.324471   -0.778100   -3.333807
     33          7           0       -7.096012   -1.370444   -0.316981
     34          6           0       -8.233377   -2.164119   -0.556262
     35          6           0       -7.846383   -3.568388   -0.528994
     36          6           0       -6.511913   -3.535372   -0.166850
     37          6           0       -6.097051   -2.199274   -0.020227
     38          6           0       -8.713435   -4.763709   -0.785070
     39          6           0       -5.389239   -4.361675    0.036746
     40          8           0       -5.225485   -5.593549    0.078746
     41          6           0       -4.171388   -3.381447    0.516196
     42          6           0       -3.635453   -3.713303    1.865190
     43          8           0       -3.734520   -3.217238    2.991048
     44          8           0       -2.796435   -4.833498    1.663863
     45          6           0       -2.261989   -5.370548    2.977933
     46          6           0        2.845155   -0.650244   -1.233766
     47          6           0        4.012342   -0.410566   -0.452888
     48          6           0        5.100482    0.354691   -0.738988
     49          6           0        5.158981    1.226372   -2.192365
     50          6           0        6.521098    0.397160   -0.061589
     51          6           0        7.595261   -0.241341   -0.860573
     52          6           0        8.864528   -0.099500   -0.115019
     53          6           0       10.167931   -0.607121   -0.838826
     54          6           0        9.978461   -2.031365   -1.155534
     55          6           0       11.351545   -0.300645    0.066290
     56          6           0       12.673164   -0.542399   -0.718004
     57          6           0       13.940288   -0.164931    0.227850
     58          6           0       15.266815   -0.335881   -0.573295
     59          6           0       15.651335   -1.673518   -0.935239
     60          6           0       16.386618    0.333599    0.276149
     61          6           0       17.813220    0.565619   -0.299626
     62          6           0       18.899479    1.196106    0.701292
     63          6           0       20.270643    1.434941    0.205651
     64          6           0       20.319080    2.245037   -1.064601
     65          6           0       21.089651    2.169764    1.309156
     66          1           0       -4.082119    3.527354    1.448525
     67          1           0       -9.976658    4.111888   -0.339375
     68          1           0      -10.099477   -2.356141   -1.202109
     69          1           0       -2.640332   -1.261724    1.980725
     70          1           0       -2.425880    1.803234    1.127716
     71          1           0       -1.919439    0.733150    3.546364
     72          1           0       -3.220357    2.111214    3.695700
     73          1           0       -3.615438    0.202845    3.769380
     74          1           0       -1.937882   -1.663360   -0.505547
     75          1           0       -2.201687    0.055525   -0.737113
     76          1           0       -0.336094    0.519781    1.055770
     77          1           0       -0.063232   -1.159131    1.054805
     78          1           0       -4.679692    6.204341    1.146062
     79          1           0       -6.125039    6.672896    1.956309
     80          1           0       -5.108112    5.351963    2.583279
     81          1           0       -9.655390    5.960388    0.769696
     82          1           0       -9.212239    8.044675    0.244724
     83          1           0       -7.262470    7.656551   -0.092023
     84          1           0      -12.147052    3.039220   -2.457844
     85          1           0      -13.252330    2.032353   -1.279035
     86          1           0      -12.247198    3.474893   -0.697190
     87          1           0      -12.353210   -1.574505   -1.253622
     88          1           0      -13.232836   -0.095952   -1.249121
     89          1           0      -13.011568   -1.440913   -3.614555
     90          1           0      -12.613685    0.409435   -3.774813
     91          1           0      -11.265053   -1.232634   -3.711300
     92          1           0       -9.470723   -4.612657   -1.743408
     93          1           0       -8.143193   -5.774951   -0.968867
     94          1           0       -9.319508   -4.777520    0.277048
     95          1           0       -3.299054   -3.567772   -0.208411
     96          1           0       -1.344733   -4.754883    3.350416
     97          1           0       -3.108649   -5.383731    3.782198
     98          1           0       -1.931871   -6.289109    2.659235
     99          1           0        2.675379   -1.773320   -1.499349
    100          1           0        2.831609    0.039498   -2.218979
    101          1           0        4.083694   -0.952696    0.573432
    102          1           0        4.173217    1.275694   -2.732003
    103          1           0        5.247259    2.157633   -1.645128
    104          1           0        5.966125    0.847405   -2.956571
    105          1           0        6.748719    1.380025    0.147032
    106          1           0        6.386711   -0.063478    1.132497
    107          1           0        7.262114   -1.415528   -1.048676
    108          1           0        7.656925    0.166355   -1.855618
    109          1           0        9.065772    1.094291    0.147236
    110          1           0        8.936238   -0.603619    0.865747
    111          1           0       10.211775   -0.047731   -1.721554
    112          1           0        9.253705   -2.063648   -1.934679
    113          1           0       10.963263   -2.293574   -1.533147
    114          1           0        9.650696   -2.742700   -0.444270
    115          1           0       11.533934    0.767718    0.425157
    116          1           0       11.454610   -1.023829    0.941274
    117          1           0       12.794790   -1.536384   -1.176478
    118          1           0       12.774465    0.032799   -1.695252
    119          1           0       13.832901    1.005938    0.485301
    120          1           0       14.020211   -0.631932    1.171004
    121          1           0       15.141987    0.346649   -1.520130
    122          1           0       15.593829   -2.215552    0.010689
    123          1           0       15.007003   -2.022104   -1.688647
    124          1           0       16.769456   -1.797191   -1.257117
    125          1           0       16.160676    1.335748    0.784397
    126          1           0       16.354771   -0.296848    1.135512
    127          1           0       18.310496   -0.429577   -0.545898
    128          1           0       17.655174    1.007843   -1.267030
    129          1           0       18.481225    2.074321    0.995556
    130          1           0       18.608882    0.805431    1.615465
    131          1           0       20.739318    0.458739   -0.093985
    132          1           0       20.059405    3.350695   -1.155326
    133          1           0       21.435606    2.449082   -1.524482
    134          1           0       19.670577    2.197553   -2.021353
    135          1           0       21.161157    1.434448    2.207140
    136          1           0       22.183577    2.279919    1.024335
    137          1           0       20.636203    3.253485    1.485824
 ---------------------------------------------------------------------

 SCF Done:  E(RCAM-B3LYP) =  -2932.64989967     A.U. after   15 cycles

 Excitation energies and oscillator strengths:

 Excited State   1:      Singlet-A      2.1756 eV  569.88 nm  f=0.2213  <S**2>=0.000
     240 -> 243        0.26183
     241 -> 242        0.64048
 This state for optimization and/or second-order correction.
 Total Energy, E(TD-HF/TD-KS) =  -2932.56994749
 Copying the excited state density for this state as the 1-particle RhoCI density.

 The electronic state is 1-A.
 Alpha  occ. eigenvalues --  -46.84030 -19.25494 -19.24779 -19.21320 -19.20225
 Alpha  occ. eigenvalues --  -19.18437 -14.41055 -14.39836 -14.39033 -14.38964
 Alpha  occ. eigenvalues --  -10.39233 -10.38056 -10.35256 -10.33458 -10.31183
 Alpha  occ. eigenvalues --  -10.31162 -10.30863 -10.30427 -10.30144 -10.29740
 Alpha  occ. eigenvalues --  -10.29161 -10.29097 -10.28764 -10.28558 -10.28533
 Alpha  occ. eigenvalues --  -10.28518 -10.28410 -10.28353 -10.27844 -10.27803
 Alpha  occ. eigenvalues --  -10.27728 -10.27585 -10.27513 -10.27443 -10.27422
 Alpha  occ. eigenvalues --  -10.27418 -10.27372 -10.27327 -10.27254 -10.27237
 Alpha  occ. eigenvalues --  -10.27230 -10.26924 -10.26818 -10.26712 -10.26582
 Alpha  occ. eigenvalues --  -10.26489 -10.26380 -10.26330 -10.26196 -10.26178
 Alpha  occ. eigenvalues --  -10.26148 -10.26063 -10.26062 -10.26053 -10.25593
 Alpha  occ. eigenvalues --  -10.25483 -10.25481 -10.25442 -10.25357 -10.25272
 Alpha  occ. eigenvalues --  -10.25159 -10.24752 -10.24190 -10.23668 -10.23432
 Alpha  occ. eigenvalues --   -3.13108  -1.87824  -1.87332  -1.87288  -1.17788
 Alpha  occ. eigenvalues --   -1.14856  -1.09357  -1.06508  -1.05680  -1.05403
 Alpha  occ. eigenvalues --   -1.04270  -1.02790  -1.01780  -0.92850  -0.91681
 Alpha  occ. eigenvalues --   -0.90801  -0.90342  -0.89815  -0.89439  -0.89111
 Alpha  occ. eigenvalues --   -0.88820  -0.88463  -0.88007  -0.87449  -0.87064
 Alpha  occ. eigenvalues --   -0.85808  -0.84778  -0.84031  -0.82929  -0.82748
 Alpha  occ. eigenvalues --   -0.81287  -0.80991  -0.80832  -0.80058  -0.78208
 Alpha  occ. eigenvalues --   -0.77565  -0.75838  -0.75811  -0.75422  -0.75302
 Alpha  occ. eigenvalues --   -0.74817  -0.74766  -0.74300  -0.73365  -0.72690
 Alpha  occ. eigenvalues --   -0.72254  -0.70478  -0.69159  -0.68923  -0.68287
 Alpha  occ. eigenvalues --   -0.66734  -0.66385  -0.65553  -0.65178  -0.64888
 Alpha  occ. eigenvalues --   -0.64758  -0.64210  -0.63892  -0.62214  -0.61778
 Alpha  occ. eigenvalues --   -0.60884  -0.60099  -0.59652  -0.59615  -0.58806
 Alpha  occ. eigenvalues --   -0.58414  -0.57845  -0.57463  -0.57040  -0.56754
 Alpha  occ. eigenvalues --   -0.56167  -0.55219  -0.54956  -0.54544  -0.54359
 Alpha  occ. eigenvalues --   -0.53956  -0.53683  -0.53283  -0.53196  -0.52918
 Alpha  occ. eigenvalues --   -0.52582  -0.52308  -0.52104  -0.51639  -0.51278
 Alpha  occ. eigenvalues --   -0.51070  -0.51019  -0.50772  -0.50613  -0.50505
 Alpha  occ. eigenvalues --   -0.50326  -0.50248  -0.49771  -0.49590  -0.49524
 Alpha  occ. eigenvalues --   -0.48938  -0.48744  -0.48568  -0.48289  -0.48218
 Alpha  occ. eigenvalues --   -0.48033  -0.47756  -0.47546  -0.47401  -0.47150
 Alpha  occ. eigenvalues --   -0.46561  -0.46385  -0.46319  -0.46289  -0.45998
 Alpha  occ. eigenvalues --   -0.45673  -0.45285  -0.45194  -0.44945  -0.44780
 Alpha  occ. eigenvalues --   -0.44577  -0.44434  -0.44160  -0.43887  -0.43793
 Alpha  occ. eigenvalues --   -0.43533  -0.43487  -0.43391  -0.43000  -0.42929
 Alpha  occ. eigenvalues --   -0.42873  -0.42564  -0.42503  -0.42318  -0.42005
 Alpha  occ. eigenvalues --   -0.41839  -0.41732  -0.41334  -0.41258  -0.41183
 Alpha  occ. eigenvalues --   -0.40879  -0.40609  -0.40370  -0.40166  -0.40068
 Alpha  occ. eigenvalues --   -0.39941  -0.39654  -0.39158  -0.38834  -0.38801
 Alpha  occ. eigenvalues --   -0.38738  -0.38509  -0.38002  -0.37685  -0.37505
 Alpha  occ. eigenvalues --   -0.37257  -0.37187  -0.36768  -0.36710  -0.36298
 Alpha  occ. eigenvalues --   -0.36053  -0.35779  -0.35587  -0.35299  -0.35020
 Alpha  occ. eigenvalues --   -0.34956  -0.34843  -0.34564  -0.33594  -0.33158
 Alpha  occ. eigenvalues --   -0.33102  -0.32910  -0.32042  -0.30890  -0.30102
 Alpha  occ. eigenvalues --   -0.29991  -0.29795  -0.28987  -0.27312  -0.23818
 Alpha  occ. eigenvalues --   -0.21010
 Alpha virt. eigenvalues --   -0.05662  -0.03341   0.01573   0.04443   0.05358
 Alpha virt. eigenvalues --    0.05423   0.06240   0.06587   0.06976   0.07443
 Alpha virt. eigenvalues --    0.08940   0.10256   0.10905   0.11418   0.11641

 Mulliken charges:
               1
     1  Mg   0.814072
     2  C    0.050455
     3  C   -0.185120
     4  C   -0.163277
     5  C   -0.149427
     6  N   -0.640214
     7  C    0.333753
     8  C   -0.167650
     9  C   -0.144197
    10  C    0.348292
    11  C   -0.297313
    12  C   -0.184514
    13  C   -0.247539
    14  C    0.597025
    15  O   -0.526135
    16  O   -0.475097
    17  N   -0.715707
    18  C    0.328074
    19  C   -0.002035
    20  C    0.046487
    21  C    0.277612
    22  C   -0.407709
    23  C   -0.072993
    24  C   -0.223086
    25  N   -0.696049
    26  C    0.240267
    27  C    0.092469
    28  C   -0.056634
    29  C    0.304271
    30  C   -0.376253
    31  C   -0.243235
    32  C   -0.273033
    33  N   -0.756535
    34  C    0.307115
    35  C    0.059042
    36  C    0.047661
    37  C    0.313002
    38  C   -0.364961
    39  C    0.325020
    40  O   -0.468900
    41  C   -0.315231
    42  C    0.639686
    43  O   -0.492480
    44  O   -0.486273
    45  C   -0.076271
    46  C    0.023827
    47  C   -0.095494
    48  C    0.046576
    49  C   -0.361713
    50  C   -0.193940
    51  C   -0.155396
    52  C   -0.160115
    53  C   -0.067419
    54  C   -0.305725
    55  C   -0.164896
    56  C   -0.204238
    57  C   -0.172791
    58  C   -0.065085
    59  C   -0.286790
    60  C   -0.185520
    61  C   -0.186962
    62  C   -0.168151
    63  C   -0.045808
    64  C   -0.313127
    65  C   -0.301422
    66  H    0.080972
    67  H    0.087623
    68  H    0.086062
    69  H    0.126242
    70  H    0.098388
    71  H    0.119349
    72  H    0.088062
    73  H    0.120713
    74  H    0.120466
    75  H    0.115858
    76  H    0.147667
    77  H    0.148783
    78  H    0.108855
    79  H    0.114744
    80  H    0.116825
    81  H    0.120120
    82  H    0.070224
    83  H    0.117648
    84  H    0.134634
    85  H    0.106999
    86  H    0.085868
    87  H    0.101393
    88  H    0.096408
    89  H    0.120466
    90  H    0.079187
    91  H    0.096986
    92  H    0.109463
    93  H    0.152468
    94  H    0.127882
    95  H    0.166053
    96  H    0.108454
    97  H    0.137520
    98  H    0.137205
    99  H    0.128629
   100  H    0.116116
   101  H    0.086315
   102  H    0.104900
   103  H    0.132697
   104  H    0.116627
   105  H    0.117891
   106  H    0.065530
   107  H    0.081638
   108  H    0.106355
   109  H    0.053563
   110  H    0.096553
   111  H    0.092911
   112  H    0.107108
   113  H    0.095704
   114  H    0.109447
   115  H    0.093828
   116  H    0.091501
   117  H    0.096786
   118  H    0.085487
   119  H    0.075733
   120  H    0.096890
   121  H    0.061995
   122  H    0.096998
   123  H    0.109074
   124  H    0.098613
   125  H    0.072736
   126  H    0.082498
   127  H    0.075455
   128  H    0.097470
   129  H    0.095544
   130  H    0.097500
   131  H    0.097147
   132  H    0.089563
   133  H    0.073922
   134  H    0.099291
   135  H    0.096155
   136  H    0.100097
   137  H    0.101898
 Sum of Mulliken charges =   0.00000

 Dipole moment (field-independent basis, Debye):
    X=              1.7739    Y=              4.2259    Z=              1.5031  Tot=              4.8234
 Quadrupole moment (field-independent basis, Debye-Ang):
   XX=           -347.9447   YY=           -390.9763   ZZ=           -399.0264
   XY=            -15.4566   XZ=              5.3271   YZ=              0.1453

 Normal termination of Gaussian 09 at Sun Jun 30 14:20:35 2019.
