 Gaussian 09, Revision D.01,
 Gaussian 09:  ES64L-G09RevD.01 24-Apr-2013

 -------------------------------------
 # td=(NStates=1) CAM-B3LYP/6-31G(d,p)
 -------------------------------------

 --
 TD
 --
 Symbolic Z-matrix:
 Charge =  0 Multiplicity = 1

                         Standard orientation:
 ---------------------------------------------------------------------
 Center     Atomic      Atomic             Coordinates (Angstroms)
 Number     Number       Type             X           Y           Z
 ---------------------------------------------------------------------
      1         12           0       -7.175235    0.650974    0.080536
      2          6           0       -4.731495   -1.972962    0.408901
      3          6           0       -4.788549    2.799604    1.195322
      4          6           0       -9.460970    3.086703   -0.338371
      5          6           0       -9.601849   -1.736502   -0.932306
      6          7           0       -5.155690    0.490641    0.627138
      7          6           0       -4.317171   -0.663253    0.729101
      8          6           0       -2.958540   -0.375376    1.260250
      9          6           0       -3.073558    1.092835    1.611188
     10          6           0       -4.443678    1.487416    1.152070
     11          6           0       -2.896301    1.287663    3.156818
     12          6           0       -1.907697   -0.636588    0.149354
     13          6           0       -0.452821   -0.427733    0.525118
     14          6           0        0.546140   -0.682380   -0.538726
     15          8           0        0.263924   -1.012494   -1.674855
     16          8           0        1.811324   -0.503583   -0.044124
     17          7           0       -7.154575    2.553424    0.474808
     18          6           0       -6.098189    3.373256    0.842830
     19          6           0       -6.503202    4.707261    0.773125
     20          6           0       -7.795303    4.898348    0.425550
     21          6           0       -8.276125    3.479588    0.091346
     22          6           0       -5.545777    5.882018    1.283928
     23          6           0       -8.747702    5.968235    0.388160
     24          6           0       -8.393485    7.165897    0.279449
     25          7           0       -9.194514    0.663476   -0.479968
     26          6           0       -9.914787    1.827945   -0.592172
     27          6           0      -11.239795    1.430766   -1.202267
     28          6           0      -11.237693    0.029493   -1.284513
     29          6           0       -9.931780   -0.384524   -0.788373
     30          6           0      -12.361766    2.388684   -1.256952
     31          6           0      -12.382961   -0.767723   -1.742252
     32          6           0      -12.433155   -0.822488   -3.296748
     33          7           0       -7.219247   -1.361652   -0.319178
     34          6           0       -8.225925   -2.236208   -0.678143
     35          6           0       -7.814694   -3.630383   -0.638770
     36          6           0       -6.482781   -3.557361   -0.140056
     37          6           0       -6.165748   -2.179549    0.045523
     38          6           0       -8.615875   -4.879092   -0.952675
     39          6           0       -5.293496   -4.354613    0.316299
     40          8           0       -5.141207   -5.589979    0.365272
     41          6           0       -4.079627   -3.342049    0.512062
     42          6           0       -3.495266   -3.667876    1.868972
     43          8           0       -3.801338   -3.158159    2.941206
     44          8           0       -2.618138   -4.693963    1.756782
     45          6           0       -2.085163   -5.155636    2.959365
     46          6           0        2.837622   -0.713314   -1.033767
     47          6           0        4.090255   -0.359664   -0.386514
     48          6           0        5.101671    0.281117   -1.006912
     49          6           0        5.034302    1.146803   -2.306130
     50          6           0        6.355699    0.259603   -0.262374
     51          6           0        7.741761   -0.195991   -1.032741
     52          6           0        8.886186   -0.112403   -0.053288
     53          6           0       10.153124   -0.660897   -0.850385
     54          6           0       10.113530   -2.115787   -1.243602
     55          6           0       11.382146   -0.336899   -0.001272
     56          6           0       12.856819   -0.405519   -0.759839
     57          6           0       13.932813    0.085122    0.152440
     58          6           0       15.375203   -0.161194   -0.595859
     59          6           0       15.779766   -1.611607   -0.816903
     60          6           0       16.430590    0.610986    0.236920
     61          6           0       17.929749    0.558354   -0.233592
     62          6           0       18.852274    1.275331    0.744545
     63          6           0       20.309909    1.296497    0.280077
     64          6           0       20.511680    2.014490   -1.064287
     65          6           0       21.141116    2.012763    1.263411
     66          1           0       -3.966726    3.778941    1.397259
     67          1           0      -10.508048    3.667527   -0.312150
     68          1           0      -10.240291   -2.557822   -1.106737
     69          1           0       -2.702814   -0.924883    2.097525
     70          1           0       -2.528939    1.706020    1.246240
     71          1           0       -1.677801    1.166152    3.360801
     72          1           0       -3.311669    2.228685    3.600152
     73          1           0       -3.580585    0.694946    3.700858
     74          1           0       -2.093190   -1.636744    0.065579
     75          1           0       -2.179193   -0.198451   -0.907663
     76          1           0       -0.158758    0.490826    0.899821
     77          1           0       -0.246676   -1.243067    1.475615
     78          1           0       -5.230368    6.334899    0.263633
     79          1           0       -6.146493    6.714023    1.891105
     80          1           0       -4.566915    5.511781    1.557586
     81          1           0       -9.825155    5.643241    0.417056
     82          1           0       -9.291396    7.887990    0.203057
     83          1           0       -7.375445    7.417532    0.128918
     84          1           0      -12.221761    2.983769   -2.114252
     85          1           0      -13.174366    1.760130   -1.474203
     86          1           0      -12.422646    2.981109   -0.299093
     87          1           0      -12.225516   -1.939423   -1.471962
     88          1           0      -13.403411   -0.395110   -1.642135
     89          1           0      -13.191981   -1.791790   -3.203488
     90          1           0      -13.040611   -0.010488   -3.848283
     91          1           0      -11.387616   -1.360036   -3.709030
     92          1           0       -8.866263   -4.665064   -2.017844
     93          1           0       -7.961828   -5.699991   -0.795750
     94          1           0       -9.449959   -5.106744   -0.333114
     95          1           0       -3.120595   -3.416098   -0.253249
     96          1           0       -1.629739   -4.454357    3.615196
     97          1           0       -2.886022   -5.785122    3.581401
     98          1           0       -1.179154   -5.841962    2.656780
     99          1           0        2.731395   -1.804598   -1.279142
    100          1           0        2.596116   -0.094357   -1.948886
    101          1           0        4.494796   -0.898078    0.546095
    102          1           0        4.124631    1.239024   -2.777430
    103          1           0        5.463412    2.115141   -2.119438
    104          1           0        5.784566    0.811936   -2.910616
    105          1           0        6.481366    1.310713    0.016784
    106          1           0        6.330102   -0.125901    0.735214
    107          1           0        7.745385   -1.184324   -1.389542
    108          1           0        7.737489    0.508031   -1.856209
    109          1           0        9.161648    0.937312    0.213236
    110          1           0        8.738793   -0.669030    0.820732
    111          1           0       10.403876   -0.018918   -1.707055
    112          1           0        9.125184   -2.464135   -1.752696
    113          1           0       10.995579   -2.428657   -1.810088
    114          1           0        9.778883   -2.573076   -0.303794
    115          1           0       11.410946    0.775871    0.190016
    116          1           0       11.422608   -0.945703    1.014848
    117          1           0       12.845843   -1.413155   -1.025769
    118          1           0       12.771144    0.175780   -1.723172
    119          1           0       13.663712    1.184238    0.355132
    120          1           0       13.877838   -0.466961    1.136763
    121          1           0       15.302548    0.589486   -1.717447
    122          1           0       15.638871   -2.180812    0.187176
    123          1           0       14.983570   -2.195725   -1.288701
    124          1           0       16.797747   -1.786644   -1.164096
    125          1           0       16.197431    1.575784    0.769527
    126          1           0       16.515625    0.086918    1.322257
    127          1           0       18.392665   -0.412206   -0.297462
    128          1           0       18.024946    1.119708   -1.207403
    129          1           0       18.596215    2.263359    0.647157
    130          1           0       18.578437    0.852327    1.791444
    131          1           0       20.623428    0.260804    0.002366
    132          1           0       20.528835    3.144557   -0.858138
    133          1           0       21.464374    1.867747   -1.673662
    134          1           0       19.783821    1.783416   -1.935357
    135          1           0       21.097538    1.490588    2.233714
    136          1           0       22.163138    2.207721    0.941082
    137          1           0       20.815322    3.046653    1.578641
 ---------------------------------------------------------------------

 SCF Done:  E(RCAM-B3LYP) =  -2932.61169646     A.U. after   18 cycles

 Excitation energies and oscillator strengths:

 Excited State   1:      Singlet-A      2.0210 eV  613.49 nm  f=0.2768  <S**2>=0.000
     240 -> 242       -0.12811
     240 -> 243        0.21899
     241 -> 242        0.65136
 This state for optimization and/or second-order correction.
 Total Energy, E(TD-HF/TD-KS) =  -2932.53742774
 Copying the excited state density for this state as the 1-particle RhoCI density.

 The electronic state is 1-A.
 Alpha  occ. eigenvalues --  -46.83453 -19.26569 -19.25454 -19.20856 -19.20814
 Alpha  occ. eigenvalues --  -19.20267 -14.41616 -14.39881 -14.39471 -14.39288
 Alpha  occ. eigenvalues --  -10.39253 -10.38729 -10.35836 -10.31744 -10.31521
 Alpha  occ. eigenvalues --  -10.31023 -10.30657 -10.30361 -10.30341 -10.30111
 Alpha  occ. eigenvalues --  -10.29387 -10.29120 -10.29048 -10.28941 -10.28870
 Alpha  occ. eigenvalues --  -10.28571 -10.28485 -10.28222 -10.28188 -10.28080
 Alpha  occ. eigenvalues --  -10.27924 -10.27874 -10.27585 -10.27520 -10.27490
 Alpha  occ. eigenvalues --  -10.27362 -10.27317 -10.26929 -10.26709 -10.26473
 Alpha  occ. eigenvalues --  -10.26268 -10.26243 -10.26125 -10.26097 -10.26038
 Alpha  occ. eigenvalues --  -10.26023 -10.25986 -10.25978 -10.25915 -10.25676
 Alpha  occ. eigenvalues --  -10.25649 -10.25637 -10.25576 -10.25539 -10.25480
 Alpha  occ. eigenvalues --  -10.25446 -10.25347 -10.25312 -10.25222 -10.25064
 Alpha  occ. eigenvalues --  -10.24912 -10.24732 -10.24632 -10.24299 -10.24292
 Alpha  occ. eigenvalues --   -3.12645  -1.87341  -1.86892  -1.86833  -1.18542
 Alpha  occ. eigenvalues --   -1.17293  -1.09164  -1.09015  -1.08849  -1.04012
 Alpha  occ. eigenvalues --   -1.03606  -1.01970  -1.00983  -0.91678  -0.91327
 Alpha  occ. eigenvalues --   -0.90778  -0.90448  -0.90315  -0.89781  -0.89518
 Alpha  occ. eigenvalues --   -0.88792  -0.87889  -0.87310  -0.86225  -0.85951
 Alpha  occ. eigenvalues --   -0.84953  -0.84379  -0.83746  -0.83540  -0.82856
 Alpha  occ. eigenvalues --   -0.81679  -0.81115  -0.80430  -0.80225  -0.78374
 Alpha  occ. eigenvalues --   -0.77608  -0.77298  -0.77046  -0.75410  -0.75219
 Alpha  occ. eigenvalues --   -0.74974  -0.74882  -0.74381  -0.73080  -0.72420
 Alpha  occ. eigenvalues --   -0.71493  -0.70307  -0.68925  -0.68221  -0.67363
 Alpha  occ. eigenvalues --   -0.66802  -0.66773  -0.66085  -0.64814  -0.64720
 Alpha  occ. eigenvalues --   -0.64107  -0.63110  -0.62565  -0.62359  -0.61845
 Alpha  occ. eigenvalues --   -0.61143  -0.61047  -0.59687  -0.59568  -0.59160
 Alpha  occ. eigenvalues --   -0.58455  -0.57756  -0.57068  -0.56750  -0.56262
 Alpha  occ. eigenvalues --   -0.55895  -0.55634  -0.55176  -0.55057  -0.54839
 Alpha  occ. eigenvalues --   -0.54472  -0.54213  -0.53963  -0.53715  -0.53403
 Alpha  occ. eigenvalues --   -0.53246  -0.52934  -0.52329  -0.52042  -0.51765
 Alpha  occ. eigenvalues --   -0.51356  -0.51143  -0.50904  -0.50714  -0.50634
 Alpha  occ. eigenvalues --   -0.50397  -0.50171  -0.49862  -0.49589  -0.49402
 Alpha  occ. eigenvalues --   -0.49248  -0.49165  -0.49036  -0.48794  -0.48523
 Alpha  occ. eigenvalues --   -0.48212  -0.48071  -0.47784  -0.47502  -0.47145
 Alpha  occ. eigenvalues --   -0.46951  -0.46647  -0.46376  -0.46156  -0.45878
 Alpha  occ. eigenvalues --   -0.45663  -0.45524  -0.45104  -0.45026  -0.44870
 Alpha  occ. eigenvalues --   -0.44491  -0.44462  -0.44258  -0.44171  -0.43801
 Alpha  occ. eigenvalues --   -0.43576  -0.43415  -0.43183  -0.42938  -0.42872
 Alpha  occ. eigenvalues --   -0.42596  -0.42485  -0.42179  -0.42155  -0.41818
 Alpha  occ. eigenvalues --   -0.41617  -0.41387  -0.41181  -0.41125  -0.40920
 Alpha  occ. eigenvalues --   -0.40724  -0.40685  -0.40484  -0.40446  -0.40396
 Alpha  occ. eigenvalues --   -0.40286  -0.39906  -0.39712  -0.39593  -0.39499
 Alpha  occ. eigenvalues --   -0.39256  -0.39030  -0.38889  -0.38224  -0.37779
 Alpha  occ. eigenvalues --   -0.37750  -0.37509  -0.37167  -0.36938  -0.36557
 Alpha  occ. eigenvalues --   -0.36359  -0.36295  -0.35747  -0.35745  -0.35558
 Alpha  occ. eigenvalues --   -0.35531  -0.34988  -0.33794  -0.33619  -0.33533
 Alpha  occ. eigenvalues --   -0.33155  -0.32021  -0.31716  -0.30430  -0.29954
 Alpha  occ. eigenvalues --   -0.28909  -0.28868  -0.28424  -0.27372  -0.23238
 Alpha  occ. eigenvalues --   -0.21299
 Alpha virt. eigenvalues --   -0.06837  -0.02860   0.01577   0.04546   0.05708
 Alpha virt. eigenvalues --    0.06008   0.06342   0.06425   0.06651   0.07320
 Alpha virt. eigenvalues --    0.07828   0.09500   0.10317   0.11103   0.11604

 Mulliken charges:
               1
     1  Mg   0.810804
     2  C    0.045089
     3  C   -0.225372
     4  C   -0.151698
     5  C   -0.133223
     6  N   -0.640446
     7  C    0.276862
     8  C   -0.159755
     9  C   -0.073996
    10  C    0.368070
    11  C   -0.321279
    12  C   -0.161005
    13  C   -0.258187
    14  C    0.619462
    15  O   -0.478413
    16  O   -0.490178
    17  N   -0.723474
    18  C    0.366639
    19  C   -0.047703
    20  C    0.069073
    21  C    0.224840
    22  C   -0.362961
    23  C   -0.019706
    24  C   -0.251641
    25  N   -0.682767
    26  C    0.257447
    27  C   -0.028030
    28  C    0.065457
    29  C    0.328008
    30  C   -0.363641
    31  C   -0.266529
    32  C   -0.290403
    33  N   -0.689545
    34  C    0.225535
    35  C   -0.007863
    36  C   -0.019921
    37  C    0.273914
    38  C   -0.365898
    39  C    0.389294
    40  O   -0.475516
    41  C   -0.309174
    42  C    0.621769
    43  O   -0.480804
    44  O   -0.425774
    45  C   -0.082434
    46  C    0.011156
    47  C   -0.141495
    48  C    0.135947
    49  C   -0.366012
    50  C   -0.264778
    51  C   -0.168557
    52  C   -0.178160
    53  C   -0.063252
    54  C   -0.311654
    55  C   -0.188777
    56  C   -0.191709
    57  C   -0.170522
    58  C   -0.015480
    59  C   -0.318730
    60  C   -0.172721
    61  C   -0.180912
    62  C   -0.163788
    63  C   -0.047586
    64  C   -0.322900
    65  C   -0.311143
    66  H    0.066511
    67  H    0.088176
    68  H    0.100233
    69  H    0.135033
    70  H    0.090184
    71  H    0.085202
    72  H    0.104726
    73  H    0.131325
    74  H    0.110566
    75  H    0.116887
    76  H    0.140716
    77  H    0.104579
    78  H    0.112999
    79  H    0.126483
    80  H    0.114659
    81  H    0.100262
    82  H    0.095279
    83  H    0.110636
    84  H    0.131904
    85  H    0.108099
    86  H    0.120606
    87  H    0.091340
    88  H    0.120043
    89  H    0.073054
    90  H    0.117942
    91  H    0.100150
    92  H    0.123807
    93  H    0.152496
    94  H    0.131213
    95  H    0.163108
    96  H    0.131772
    97  H    0.116713
    98  H    0.105081
    99  H    0.124676
   100  H    0.120373
   101  H    0.085791
   102  H    0.123238
   103  H    0.118528
   104  H    0.130192
   105  H    0.099352
   106  H    0.099602
   107  H    0.104930
   108  H    0.098412
   109  H    0.095733
   110  H    0.103835
   111  H    0.082948
   112  H    0.088175
   113  H    0.116687
   114  H    0.104758
   115  H    0.080053
   116  H    0.066172
   117  H    0.102168
   118  H    0.087880
   119  H    0.093380
   120  H    0.095598
   121  H    0.027565
   122  H    0.091428
   123  H    0.111518
   124  H    0.124679
   125  H    0.095854
   126  H    0.049639
   127  H    0.093708
   128  H    0.089390
   129  H    0.101854
   130  H    0.081412
   131  H    0.086048
   132  H    0.090189
   133  H    0.098955
   134  H    0.092180
   135  H    0.097627
   136  H    0.102819
   137  H    0.097010
 Sum of Mulliken charges =   0.00000

 Dipole moment (field-independent basis, Debye):
    X=              1.2241    Y=              5.4582    Z=             -0.1231  Tot=              5.5951
 Quadrupole moment (field-independent basis, Debye-Ang):
   XX=           -324.2126   YY=           -393.0506   ZZ=           -402.4874
   XY=            -31.6085   XZ=             10.5681   YZ=             -1.7920

 Normal termination of Gaussian 09 at Fri Jun 28 02:24:59 2019.
