 Gaussian 09, Revision D.01,
 Gaussian 09:  ES64L-G09RevD.01 24-Apr-2013

 -------------------------------------
 # td=(NStates=1) CAM-B3LYP/6-31G(d,p)
 -------------------------------------

 --
 TD
 --
 Symbolic Z-matrix:
 Charge =  0 Multiplicity = 1

                         Standard orientation:
 ---------------------------------------------------------------------
 Center     Atomic      Atomic             Coordinates (Angstroms)
 Number     Number       Type             X           Y           Z
 ---------------------------------------------------------------------
      1         12           0       -7.161108    0.659485    0.107191
      2          6           0       -4.809859   -1.965934    0.370824
      3          6           0       -4.888811    2.728643    1.112649
      4          6           0       -9.442309    3.138938   -0.360373
      5          6           0       -9.566638   -1.657591   -0.845876
      6          7           0       -5.080361    0.389626    0.677660
      7          6           0       -4.285874   -0.783167    0.769529
      8          6           0       -2.859769   -0.397818    1.171800
      9          6           0       -2.887708    1.042661    1.553427
     10          6           0       -4.328215    1.497689    1.100282
     11          6           0       -2.940444    1.232381    3.078491
     12          6           0       -1.961452   -0.737350    0.000448
     13          6           0       -0.553522   -0.568922    0.494747
     14          6           0        0.547693   -0.665833   -0.650109
     15          8           0        0.303053   -0.967191   -1.827419
     16          8           0        1.728159   -0.450175   -0.203229
     17          7           0       -7.146139    2.615148    0.349415
     18          6           0       -6.075210    3.374609    0.853423
     19          6           0       -6.465889    4.756347    0.834464
     20          6           0       -7.719549    4.880206    0.396725
     21          6           0       -8.195505    3.472645    0.143206
     22          6           0       -5.544733    5.839617    1.423136
     23          6           0       -8.730410    5.980135    0.443922
     24          6           0       -8.387105    7.354826    0.165579
     25          7           0       -9.190439    0.681980   -0.325636
     26          6           0       -9.833243    1.858248   -0.618100
     27          6           0      -11.245769    1.424852   -1.013148
     28          6           0      -11.234900    0.093543   -1.165784
     29          6           0       -9.970808   -0.331714   -0.740521
     30          6           0      -12.233226    2.439207   -1.286820
     31          6           0      -12.279391   -0.746595   -1.716864
     32          6           0      -12.190727   -1.002149   -3.227144
     33          7           0       -7.262465   -1.337962   -0.253480
     34          6           0       -8.329761   -2.193662   -0.553812
     35          6           0       -7.947270   -3.553863   -0.536668
     36          6           0       -6.541967   -3.511364   -0.207312
     37          6           0       -6.137657   -2.141375   -0.016726
     38          6           0       -8.717791   -4.735554   -0.662521
     39          6           0       -5.410233   -4.338552    0.132371
     40          8           0       -5.306976   -5.534009    0.289957
     41          6           0       -4.201265   -3.364142    0.538848
     42          6           0       -3.534980   -3.819114    1.863205
     43          8           0       -3.634879   -3.122836    2.870719
     44          8           0       -2.671607   -4.842864    1.622478
     45          6           0       -2.125597   -5.352485    2.828168
     46          6           0        2.832951   -0.622439   -1.148616
     47          6           0        4.182004   -0.414973   -0.491867
     48          6           0        5.233151    0.278525   -0.982085
     49          6           0        5.020736    1.319068   -2.192400
     50          6           0        6.410965    0.295411   -0.202669
     51          6           0        7.558375   -0.308642   -0.854413
     52          6           0        8.950182   -0.219087   -0.087258
     53          6           0       10.173460   -0.650664   -0.835056
     54          6           0       10.118835   -2.175543   -1.087366
     55          6           0       11.402323   -0.181213   -0.118219
     56          6           0       12.718117   -0.501749   -0.809319
     57          6           0       13.957005   -0.017680    0.129301
     58          6           0       15.326390   -0.160787   -0.433568
     59          6           0       15.728234   -1.549560   -0.875158
     60          6           0       16.362786    0.503152    0.442649
     61          6           0       17.903924    0.551046   -0.177082
     62          6           0       18.859941    1.205284    0.719896
     63          6           0       20.275732    1.318238    0.213780
     64          6           0       20.524925    2.334189   -1.023611
     65          6           0       21.175262    1.978379    1.420223
     66          1           0       -4.197905    3.553690    1.249211
     67          1           0      -10.037762    3.833179   -0.706087
     68          1           0      -10.422358   -2.326576   -1.017606
     69          1           0       -2.673620   -0.893352    1.969237
     70          1           0       -2.037455    1.767978    0.940692
     71          1           0       -1.933270    1.074494    3.339693
     72          1           0       -3.022769    2.343512    3.428397
     73          1           0       -3.743162    0.748168    3.566194
     74          1           0       -2.276599   -1.795077   -0.466789
     75          1           0       -2.312744   -0.265380   -1.015274
     76          1           0       -0.629258    0.454773    0.876366
     77          1           0       -0.495547   -1.150714    1.154248
     78          1           0       -4.871910    6.099081    0.472576
     79          1           0       -6.138759    6.788874    1.908021
     80          1           0       -4.716723    5.534016    2.068207
     81          1           0       -9.788658    5.848787    0.482665
     82          1           0       -9.108234    8.065812    0.444189
     83          1           0       -7.370573    7.676698    0.071406
     84          1           0      -12.302154    2.993986   -2.227805
     85          1           0      -13.215066    1.851652   -1.364603
     86          1           0      -12.455719    3.247275   -0.583394
     87          1           0      -12.104923   -1.672984   -1.204802
     88          1           0      -13.250580   -0.209062   -1.540634
     89          1           0      -13.162057   -1.670216   -3.339195
     90          1           0      -12.097198   -0.166706   -3.866128
     91          1           0      -11.426479   -1.650704   -3.358603
     92          1           0       -9.144491   -4.888402   -1.667465
     93          1           0       -8.203003   -5.644218   -0.433823
     94          1           0       -9.565800   -4.711848    0.048376
     95          1           0       -3.480019   -3.554710   -0.211118
     96          1           0       -1.643194   -4.468950    3.271255
     97          1           0       -2.845257   -5.674453    3.613149
     98          1           0       -1.551621   -6.315330    2.489193
     99          1           0        2.884931   -1.430445   -1.671348
    100          1           0        2.499916   -0.007556   -1.973166
    101          1           0        4.295283   -1.153494    0.283739
    102          1           0        4.176183    1.118353   -2.726547
    103          1           0        5.226188    2.259428   -1.843334
    104          1           0        5.807810    1.188649   -3.120597
    105          1           0        6.611623    1.370375   -0.166077
    106          1           0        6.234932   -0.218428    0.939831
    107          1           0        7.275022   -1.195722   -1.374921
    108          1           0        7.869960    0.095582   -1.839487
    109          1           0        8.849268    0.867891    0.345091
    110          1           0        8.810124   -1.003708    0.703939
    111          1           0       10.376479   -0.092677   -1.785863
    112          1           0        9.310970   -2.315896   -1.584389
    113          1           0       11.022247   -2.492664   -1.962940
    114          1           0       10.214023   -2.677893   -0.100342
    115          1           0       11.590896    1.018083   -0.070596
    116          1           0       11.675899   -0.680773    0.878088
    117          1           0       13.034643   -1.520684   -1.065159
    118          1           0       12.829650    0.041206   -1.671019
    119          1           0       13.719581    0.932688    0.351788
    120          1           0       14.071245   -0.677189    1.116579
    121          1           0       15.296008    0.521225   -1.327417
    122          1           0       15.534697   -2.529226   -0.317886
    123          1           0       15.081032   -1.881164   -1.701805
    124          1           0       16.698937   -1.676557   -1.413571
    125          1           0       16.052311    1.353802    0.871396
    126          1           0       16.313059   -0.184774    1.440220
    127          1           0       18.160384   -0.342649   -0.558882
    128          1           0       17.933919    1.232843   -1.122524
    129          1           0       18.506389    2.125148    1.030392
    130          1           0       19.118784    0.526156    1.611710
    131          1           0       20.582891    0.278373    0.034582
    132          1           0       20.172454    3.263801   -0.807236
    133          1           0       21.585845    2.251946   -1.124656
    134          1           0       19.994058    1.980476   -1.930077
    135          1           0       21.377206    1.219055    2.296229
    136          1           0       22.194565    2.297710    1.137411
    137          1           0       20.470187    2.926728    1.703275
 ---------------------------------------------------------------------

 SCF Done:  E(RCAM-B3LYP) =  -2932.57323384     A.U. after   18 cycles

 Excitation energies and oscillator strengths:

 Excited State   1:      Singlet-A      1.9659 eV  630.67 nm  f=0.2824  <S**2>=0.000
     240 -> 243       -0.22776
     241 -> 242        0.66442
 This state for optimization and/or second-order correction.
 Total Energy, E(TD-HF/TD-KS) =  -2932.50098754
 Copying the excited state density for this state as the 1-particle RhoCI density.

 The electronic state is 1-A.
 Alpha  occ. eigenvalues --  -46.83416 -19.27400 -19.27096 -19.21460 -19.19862
 Alpha  occ. eigenvalues --  -19.19188 -14.41529 -14.39323 -14.38770 -14.38577
 Alpha  occ. eigenvalues --  -10.39909 -10.39218 -10.33958 -10.31884 -10.31202
 Alpha  occ. eigenvalues --  -10.30746 -10.30249 -10.30211 -10.29973 -10.29509
 Alpha  occ. eigenvalues --  -10.28770 -10.28647 -10.28573 -10.28435 -10.28284
 Alpha  occ. eigenvalues --  -10.28113 -10.27784 -10.27613 -10.27556 -10.27460
 Alpha  occ. eigenvalues --  -10.27378 -10.27308 -10.26969 -10.26929 -10.26803
 Alpha  occ. eigenvalues --  -10.26705 -10.26665 -10.26624 -10.26606 -10.26557
 Alpha  occ. eigenvalues --  -10.26507 -10.26381 -10.26344 -10.26045 -10.25904
 Alpha  occ. eigenvalues --  -10.25876 -10.25858 -10.25798 -10.25749 -10.25577
 Alpha  occ. eigenvalues --  -10.25464 -10.25364 -10.25261 -10.25159 -10.25041
 Alpha  occ. eigenvalues --  -10.24977 -10.24947 -10.24907 -10.24774 -10.24749
 Alpha  occ. eigenvalues --  -10.24741 -10.24498 -10.24230 -10.23855 -10.23769
 Alpha  occ. eigenvalues --   -3.12525  -1.87229  -1.86758  -1.86712  -1.20075
 Alpha  occ. eigenvalues --   -1.18272  -1.10328  -1.09469  -1.07567  -1.03716
 Alpha  occ. eigenvalues --   -1.02751  -1.02112  -1.00867  -0.92789  -0.92068
 Alpha  occ. eigenvalues --   -0.91593  -0.91022  -0.90158  -0.89904  -0.88706
 Alpha  occ. eigenvalues --   -0.88403  -0.88382  -0.87527  -0.87092  -0.86911
 Alpha  occ. eigenvalues --   -0.85620  -0.84263  -0.83527  -0.83443  -0.82656
 Alpha  occ. eigenvalues --   -0.81607  -0.81260  -0.80934  -0.80454  -0.78613
 Alpha  occ. eigenvalues --   -0.78127  -0.77244  -0.77028  -0.76186  -0.75630
 Alpha  occ. eigenvalues --   -0.75368  -0.74937  -0.74442  -0.73560  -0.72826
 Alpha  occ. eigenvalues --   -0.71441  -0.70692  -0.70292  -0.69584  -0.68269
 Alpha  occ. eigenvalues --   -0.67785  -0.67118  -0.66413  -0.65770  -0.65623
 Alpha  occ. eigenvalues --   -0.65138  -0.64355  -0.63405  -0.62958  -0.62801
 Alpha  occ. eigenvalues --   -0.61927  -0.61303  -0.60515  -0.60121  -0.59351
 Alpha  occ. eigenvalues --   -0.58756  -0.58129  -0.57704  -0.57646  -0.57280
 Alpha  occ. eigenvalues --   -0.56419  -0.56055  -0.55674  -0.55250  -0.55021
 Alpha  occ. eigenvalues --   -0.54895  -0.54616  -0.54093  -0.54029  -0.53320
 Alpha  occ. eigenvalues --   -0.53071  -0.52866  -0.52590  -0.52441  -0.52271
 Alpha  occ. eigenvalues --   -0.51906  -0.51742  -0.50949  -0.50947  -0.50683
 Alpha  occ. eigenvalues --   -0.50522  -0.50174  -0.49965  -0.49796  -0.49735
 Alpha  occ. eigenvalues --   -0.49586  -0.49303  -0.49140  -0.48687  -0.48586
 Alpha  occ. eigenvalues --   -0.48505  -0.48178  -0.48051  -0.47581  -0.47002
 Alpha  occ. eigenvalues --   -0.46867  -0.46484  -0.46185  -0.46115  -0.45757
 Alpha  occ. eigenvalues --   -0.45494  -0.45401  -0.45155  -0.45098  -0.44745
 Alpha  occ. eigenvalues --   -0.44666  -0.44592  -0.44550  -0.44306  -0.44180
 Alpha  occ. eigenvalues --   -0.43982  -0.43512  -0.43445  -0.43397  -0.43187
 Alpha  occ. eigenvalues --   -0.43122  -0.42877  -0.42664  -0.42571  -0.42427
 Alpha  occ. eigenvalues --   -0.42362  -0.42253  -0.42014  -0.41621  -0.41410
 Alpha  occ. eigenvalues --   -0.41274  -0.40917  -0.40885  -0.40613  -0.40479
 Alpha  occ. eigenvalues --   -0.40304  -0.40250  -0.39933  -0.39560  -0.39517
 Alpha  occ. eigenvalues --   -0.38825  -0.38529  -0.38229  -0.37980  -0.37862
 Alpha  occ. eigenvalues --   -0.37292  -0.37103  -0.36915  -0.36823  -0.36626
 Alpha  occ. eigenvalues --   -0.36405  -0.36075  -0.35889  -0.35481  -0.35098
 Alpha  occ. eigenvalues --   -0.34902  -0.34564  -0.33952  -0.33752  -0.33710
 Alpha  occ. eigenvalues --   -0.32967  -0.32515  -0.32057  -0.31145  -0.30150
 Alpha  occ. eigenvalues --   -0.28930  -0.28346  -0.27724  -0.27635  -0.23183
 Alpha  occ. eigenvalues --   -0.20859
 Alpha virt. eigenvalues --   -0.06700  -0.02700   0.01683   0.03420   0.05304
 Alpha virt. eigenvalues --    0.05484   0.06629   0.06780   0.07146   0.07533
 Alpha virt. eigenvalues --    0.08982   0.10685   0.11160   0.11516   0.12010

 Mulliken charges:
               1
     1  Mg   0.809225
     2  C    0.036958
     3  C   -0.218877
     4  C   -0.134609
     5  C   -0.178843
     6  N   -0.620511
     7  C    0.269922
     8  C   -0.085009
     9  C   -0.158010
    10  C    0.338336
    11  C   -0.308171
    12  C   -0.200256
    13  C   -0.212048
    14  C    0.585396
    15  O   -0.504861
    16  O   -0.436113
    17  N   -0.722377
    18  C    0.318238
    19  C    0.040440
    20  C    0.011945
    21  C    0.286985
    22  C   -0.369743
    23  C   -0.107894
    24  C   -0.245756
    25  N   -0.693528
    26  C    0.273556
    27  C    0.016979
    28  C    0.072847
    29  C    0.317225
    30  C   -0.409602
    31  C   -0.254096
    32  C   -0.292198
    33  N   -0.743510
    34  C    0.283428
    35  C    0.080545
    36  C   -0.020746
    37  C    0.303443
    38  C   -0.406205
    39  C    0.328447
    40  O   -0.465889
    41  C   -0.308541
    42  C    0.634796
    43  O   -0.478866
    44  O   -0.436563
    45  C   -0.092739
    46  C    0.001176
    47  C   -0.150807
    48  C    0.117203
    49  C   -0.344014
    50  C   -0.207238
    51  C   -0.200569
    52  C   -0.157197
    53  C   -0.065602
    54  C   -0.283493
    55  C   -0.157282
    56  C   -0.201704
    57  C   -0.174764
    58  C   -0.047511
    59  C   -0.331213
    60  C   -0.160550
    61  C   -0.171563
    62  C   -0.140341
    63  C   -0.084228
    64  C   -0.311907
    65  C   -0.300774
    66  H    0.060863
    67  H    0.078693
    68  H    0.082924
    69  H    0.124587
    70  H    0.095145
    71  H    0.117219
    72  H    0.098342
    73  H    0.146350
    74  H    0.098583
    75  H    0.117941
    76  H    0.119466
    77  H    0.128398
    78  H    0.108454
    79  H    0.115346
    80  H    0.126725
    81  H    0.111445
    82  H    0.106844
    83  H    0.109333
    84  H    0.124557
    85  H    0.092640
    86  H    0.119177
    87  H    0.104462
    88  H    0.101880
    89  H    0.088131
    90  H    0.120141
    91  H    0.120013
    92  H    0.121882
    93  H    0.153656
    94  H    0.122456
    95  H    0.162294
    96  H    0.131444
    97  H    0.131641
    98  H    0.123399
    99  H    0.150389
   100  H    0.120973
   101  H    0.097347
   102  H    0.129170
   103  H    0.135288
   104  H    0.085712
   105  H    0.099568
   106  H    0.084033
   107  H    0.096342
   108  H    0.088705
   109  H    0.087424
   110  H    0.090385
   111  H    0.080620
   112  H    0.124913
   113  H    0.066590
   114  H    0.110686
   115  H    0.071570
   116  H    0.088325
   117  H    0.096240
   118  H    0.096370
   119  H    0.095080
   120  H    0.063905
   121  H    0.078005
   122  H    0.099170
   123  H    0.098257
   124  H    0.103480
   125  H    0.095490
   126  H    0.053071
   127  H    0.103377
   128  H    0.069521
   129  H    0.090232
   130  H    0.080098
   131  H    0.085855
   132  H    0.111733
   133  H    0.110514
   134  H    0.094077
   135  H    0.087891
   136  H    0.100752
   137  H    0.083629
 Sum of Mulliken charges =   0.00000

 Dipole moment (field-independent basis, Debye):
    X=              2.2815    Y=              4.4249    Z=              0.0174  Tot=              4.9785
 Quadrupole moment (field-independent basis, Debye-Ang):
   XX=           -355.2835   YY=           -388.9330   ZZ=           -398.6801
   XY=            -24.4546   XZ=             -2.9826   YZ=             -1.2716

 Normal termination of Gaussian 09 at Fri Jun 28 23:18:02 2019.
