 Gaussian 09, Revision D.01,
 Gaussian 09:  ES64L-G09RevD.01 24-Apr-2013

 -------------------------------------
 # td=(NStates=1) CAM-B3LYP/6-31G(d,p)
 -------------------------------------

 --
 TD
 --
 Symbolic Z-matrix:
 Charge =  0 Multiplicity = 1

                         Standard orientation:
 ---------------------------------------------------------------------
 Center     Atomic      Atomic             Coordinates (Angstroms)
 Number     Number       Type             X           Y           Z
 ---------------------------------------------------------------------
      1         12           0       -7.157567    0.635618    0.079378
      2          6           0       -4.869926   -1.975733    0.532911
      3          6           0       -4.742049    2.779129    1.207919
      4          6           0       -9.418461    3.174277   -0.252112
      5          6           0       -9.562189   -1.638045   -0.950427
      6          7           0       -5.066898    0.388798    0.706206
      7          6           0       -4.333616   -0.720001    0.828241
      8          6           0       -2.962679   -0.432360    1.316442
      9          6           0       -3.046315    1.020143    1.720302
     10          6           0       -4.363099    1.495437    1.174451
     11          6           0       -2.912575    1.295451    3.295940
     12          6           0       -1.888272   -0.789999    0.104690
     13          6           0       -0.546816   -0.637522    0.599051
     14          6           0        0.403377   -0.849118   -0.524896
     15          8           0        0.151054   -1.314025   -1.559873
     16          8           0        1.811036   -0.527474   -0.077962
     17          7           0       -7.129965    2.561652    0.488889
     18          6           0       -6.000918    3.329290    0.843314
     19          6           0       -6.328112    4.724665    0.839656
     20          6           0       -7.622099    4.808666    0.472804
     21          6           0       -8.104718    3.447374    0.189954
     22          6           0       -5.431521    5.911329    1.179592
     23          6           0       -8.529754    6.074942    0.272449
     24          6           0       -8.092303    7.261585   -0.033473
     25          7           0       -9.171778    0.670970   -0.362505
     26          6           0       -9.907181    1.860303   -0.639554
     27          6           0      -11.231740    1.548897   -1.084676
     28          6           0      -11.223493    0.207656   -1.214859
     29          6           0       -9.893593   -0.392687   -0.904735
     30          6           0      -12.294932    2.548508   -1.182097
     31          6           0      -12.351766   -0.690698   -1.712970
     32          6           0      -12.115857   -0.918493   -3.312709
     33          7           0       -7.264460   -1.354876   -0.214268
     34          6           0       -8.256225   -2.184560   -0.607447
     35          6           0       -7.859511   -3.557179   -0.698295
     36          6           0       -6.596648   -3.508844   -0.180497
     37          6           0       -6.213719   -2.208983    0.161726
     38          6           0       -8.739616   -4.775282   -1.044784
     39          6           0       -5.359190   -4.361114    0.187923
     40          8           0       -5.201932   -5.605762    0.116638
     41          6           0       -4.192350   -3.360355    0.511360
     42          6           0       -3.583218   -3.643421    1.797522
     43          8           0       -3.873611   -3.210439    2.920026
     44          8           0       -2.772871   -4.796360    1.806443
     45          6           0       -2.029852   -5.226209    2.930482
     46          6           0        2.745859   -0.687511   -1.181992
     47          6           0        4.082995   -0.550830   -0.501633
     48          6           0        4.980798    0.265283   -0.970743
     49          6           0        5.009586    1.048916   -2.231046
     50          6           0        6.414490    0.500969   -0.219298
     51          6           0        7.584486   -0.090301   -1.048321
     52          6           0        8.934985   -0.053549   -0.157780
     53          6           0       10.149921   -0.414765   -0.917810
     54          6           0       10.137482   -1.793338   -1.522599
     55          6           0       11.380730   -0.255867   -0.040841
     56          6           0       12.789570   -0.448136   -0.738839
     57          6           0       13.962168   -0.123724    0.121665
     58          6           0       15.349939   -0.102281   -0.545890
     59          6           0       15.742892   -1.543330   -0.916241
     60          6           0       16.354895    0.385789    0.443292
     61          6           0       17.759072    0.627310   -0.145701
     62          6           0       18.873953    1.152668    0.794993
     63          6           0       20.265349    1.284161    0.239054
     64          6           0       20.361269    2.181973   -1.053364
     65          6           0       21.232535    1.849627    1.309793
     66          1           0       -3.876890    3.374985    1.437743
     67          1           0      -10.247809    3.867416   -0.329813
     68          1           0      -10.324844   -2.401577   -1.240192
     69          1           0       -2.648923   -1.016611    2.220746
     70          1           0       -2.214430    1.747491    1.245672
     71          1           0       -1.955605    0.787994    3.498490
     72          1           0       -3.047772    2.463663    3.581437
     73          1           0       -3.761313    0.454096    3.659402
     74          1           0       -2.048298   -1.783118    0.014652
     75          1           0       -2.135609   -0.160566   -0.783277
     76          1           0       -0.337776    0.375065    1.088926
     77          1           0       -0.380266   -1.294052    1.378293
     78          1           0       -4.649503    6.132234    0.457135
     79          1           0       -6.195923    6.863595    1.492441
     80          1           0       -5.011595    5.669437    2.293959
     81          1           0       -9.619994    5.695989    0.617195
     82          1           0       -8.841849    8.067055   -0.000040
     83          1           0       -6.984827    7.362742   -0.383821
     84          1           0      -12.171670    3.216851   -2.097908
     85          1           0      -13.278589    2.090021   -1.326220
     86          1           0      -12.320330    3.399446   -0.222526
     87          1           0      -12.489870   -1.517486   -1.108753
     88          1           0      -13.189449   -0.054119   -1.582457
     89          1           0      -12.927710   -1.579645   -3.687664
     90          1           0      -12.217577   -0.008850   -3.978527
     91          1           0      -11.134765   -1.441369   -3.379680
     92          1           0       -9.465043   -4.665650   -1.940373
     93          1           0       -7.930390   -5.603070   -1.097622
     94          1           0       -9.585995   -5.035491   -0.405822
     95          1           0       -3.339172   -3.391218   -0.088472
     96          1           0       -1.262229   -4.470086    3.291199
     97          1           0       -2.728205   -5.377105    3.685342
     98          1           0       -1.343966   -6.067548    2.586402
     99          1           0        2.574865   -1.678564   -1.785641
    100          1           0        2.467525    0.108587   -1.957110
    101          1           0        4.210573   -1.266331    0.313095
    102          1           0        4.104268    0.934557   -2.643543
    103          1           0        5.252755    2.032064   -2.125378
    104          1           0        5.763367    0.645237   -2.963295
    105          1           0        6.633388    1.545490   -0.129263
    106          1           0        6.434395    0.099567    0.703200
    107          1           0        7.332945   -1.068254   -1.421328
    108          1           0        7.751125    0.549490   -1.969036
    109          1           0        8.948992    0.969305    0.306584
    110          1           0        8.742687   -0.723434    0.685100
    111          1           0       10.165810    0.162521   -1.648625
    112          1           0        9.213670   -1.900212   -2.192623
    113          1           0       11.059156   -2.135151   -1.978707
    114          1           0       10.024184   -2.564077   -0.502633
    115          1           0       11.621194    0.781670    0.389615
    116          1           0       11.476293   -0.711064    0.965174
    117          1           0       12.823093   -1.628412   -1.005503
    118          1           0       12.751764    0.147900   -1.694402
    119          1           0       13.961390    0.987796    0.403026
    120          1           0       14.039179   -0.570814    1.020533
    121          1           0       15.183630    0.476833   -1.526453
    122          1           0       15.533919   -1.915359    0.068321
    123          1           0       15.009463   -2.121781   -1.470875
    124          1           0       16.787026   -1.770447   -1.307193
    125          1           0       15.960596    1.438577    0.773725
    126          1           0       16.620347   -0.241567    1.292493
    127          1           0       18.229977   -0.287946   -0.688471
    128          1           0       17.714976    1.262095   -1.043042
    129          1           0       18.550040    2.102325    1.521852
    130          1           0       18.953278    0.077529    1.674023
    131          1           0       20.508252    0.222902   -0.182486
    132          1           0       19.764625    3.131413   -0.911002
    133          1           0       21.346919    2.375236   -1.450630
    134          1           0       19.838532    1.769464   -1.768022
    135          1           0       21.025280    1.367050    2.383958
    136          1           0       22.120771    1.727051    1.167300
    137          1           0       21.108802    3.006841    1.639052
 ---------------------------------------------------------------------

 SCF Done:  E(RCAM-B3LYP) =  -2932.62323231     A.U. after   18 cycles

 Excitation energies and oscillator strengths:

 Excited State   1:      Singlet-A      1.9205 eV  645.58 nm  f=0.3248  <S**2>=0.000
     240 -> 243        0.20891
     241 -> 242        0.67089
 This state for optimization and/or second-order correction.
 Total Energy, E(TD-HF/TD-KS) =  -2932.55265532
 Copying the excited state density for this state as the 1-particle RhoCI density.

 The electronic state is 1-A.
 Alpha  occ. eigenvalues --  -46.83877 -19.24170 -19.24073 -19.23875 -19.20980
 Alpha  occ. eigenvalues --  -19.20626 -14.41933 -14.40280 -14.39150 -14.39122
 Alpha  occ. eigenvalues --  -10.39837 -10.39359 -10.36639 -10.31504 -10.31107
 Alpha  occ. eigenvalues --  -10.30828 -10.30431 -10.30416 -10.30370 -10.30058
 Alpha  occ. eigenvalues --  -10.29157 -10.29145 -10.29045 -10.28908 -10.28828
 Alpha  occ. eigenvalues --  -10.28809 -10.28707 -10.28684 -10.28467 -10.28165
 Alpha  occ. eigenvalues --  -10.28081 -10.27666 -10.27649 -10.27581 -10.27553
 Alpha  occ. eigenvalues --  -10.27511 -10.27362 -10.27241 -10.27195 -10.27176
 Alpha  occ. eigenvalues --  -10.27010 -10.26908 -10.26819 -10.26795 -10.26729
 Alpha  occ. eigenvalues --  -10.26488 -10.26358 -10.26262 -10.26250 -10.26234
 Alpha  occ. eigenvalues --  -10.26165 -10.25893 -10.25841 -10.25774 -10.25599
 Alpha  occ. eigenvalues --  -10.25384 -10.25315 -10.25215 -10.24548 -10.24540
 Alpha  occ. eigenvalues --  -10.24405 -10.24202 -10.23871 -10.23679 -10.23455
 Alpha  occ. eigenvalues --   -3.13013  -1.87713  -1.87238  -1.87212  -1.18462
 Alpha  occ. eigenvalues --   -1.15804  -1.09067  -1.08301  -1.07015  -1.04869
 Alpha  occ. eigenvalues --   -1.03776  -1.03337  -1.01407  -0.93102  -0.91685
 Alpha  occ. eigenvalues --   -0.91569  -0.90689  -0.89671  -0.89345  -0.88952
 Alpha  occ. eigenvalues --   -0.88884  -0.88317  -0.87961  -0.86558  -0.86082
 Alpha  occ. eigenvalues --   -0.84953  -0.84635  -0.83916  -0.82974  -0.82613
 Alpha  occ. eigenvalues --   -0.81613  -0.80724  -0.80313  -0.79724  -0.77637
 Alpha  occ. eigenvalues --   -0.77337  -0.76805  -0.76758  -0.76267  -0.75415
 Alpha  occ. eigenvalues --   -0.75025  -0.74915  -0.74356  -0.73426  -0.72896
 Alpha  occ. eigenvalues --   -0.71894  -0.70612  -0.70082  -0.68916  -0.68436
 Alpha  occ. eigenvalues --   -0.66959  -0.66367  -0.65469  -0.64863  -0.64476
 Alpha  occ. eigenvalues --   -0.64288  -0.63829  -0.62958  -0.62495  -0.61418
 Alpha  occ. eigenvalues --   -0.60862  -0.60714  -0.60352  -0.59597  -0.59169
 Alpha  occ. eigenvalues --   -0.58461  -0.58235  -0.57912  -0.57540  -0.57416
 Alpha  occ. eigenvalues --   -0.56641  -0.55970  -0.55083  -0.54872  -0.54711
 Alpha  occ. eigenvalues --   -0.54461  -0.53987  -0.53692  -0.53548  -0.53026
 Alpha  occ. eigenvalues --   -0.52895  -0.52669  -0.52482  -0.52283  -0.51941
 Alpha  occ. eigenvalues --   -0.51648  -0.51014  -0.50791  -0.50660  -0.50477
 Alpha  occ. eigenvalues --   -0.50392  -0.50145  -0.49786  -0.49525  -0.49394
 Alpha  occ. eigenvalues --   -0.49122  -0.48904  -0.48737  -0.48649  -0.48301
 Alpha  occ. eigenvalues --   -0.48163  -0.47839  -0.47778  -0.47616  -0.47462
 Alpha  occ. eigenvalues --   -0.47172  -0.46794  -0.46576  -0.46501  -0.46118
 Alpha  occ. eigenvalues --   -0.46023  -0.45899  -0.45776  -0.45413  -0.44982
 Alpha  occ. eigenvalues --   -0.44752  -0.44566  -0.44379  -0.44094  -0.44014
 Alpha  occ. eigenvalues --   -0.43925  -0.43743  -0.43584  -0.43343  -0.43285
 Alpha  occ. eigenvalues --   -0.43133  -0.42917  -0.42733  -0.42418  -0.42408
 Alpha  occ. eigenvalues --   -0.42146  -0.42065  -0.41864  -0.41384  -0.41265
 Alpha  occ. eigenvalues --   -0.41137  -0.40950  -0.40724  -0.40604  -0.40454
 Alpha  occ. eigenvalues --   -0.39907  -0.39758  -0.39662  -0.39324  -0.39276
 Alpha  occ. eigenvalues --   -0.38835  -0.38752  -0.38575  -0.38430  -0.38386
 Alpha  occ. eigenvalues --   -0.37567  -0.37330  -0.37240  -0.36836  -0.36518
 Alpha  occ. eigenvalues --   -0.36429  -0.36131  -0.35778  -0.35693  -0.35373
 Alpha  occ. eigenvalues --   -0.34669  -0.34415  -0.34297  -0.33578  -0.33520
 Alpha  occ. eigenvalues --   -0.33374  -0.32732  -0.32591  -0.31212  -0.30376
 Alpha  occ. eigenvalues --   -0.29827  -0.29344  -0.29311  -0.28371  -0.23777
 Alpha  occ. eigenvalues --   -0.20822
 Alpha virt. eigenvalues --   -0.07169  -0.02856   0.01295   0.04016   0.04652
 Alpha virt. eigenvalues --    0.05255   0.05524   0.06443   0.07144   0.07626
 Alpha virt. eigenvalues --    0.07853   0.09910   0.10203   0.10821   0.11045

 Mulliken charges:
               1
     1  Mg   0.814442
     2  C    0.052280
     3  C   -0.194121
     4  C   -0.180579
     5  C   -0.201693
     6  N   -0.643640
     7  C    0.330064
     8  C   -0.191108
     9  C   -0.168106
    10  C    0.363577
    11  C   -0.287034
    12  C   -0.159885
    13  C   -0.270356
    14  C    0.609298
    15  O   -0.401829
    16  O   -0.542853
    17  N   -0.723898
    18  C    0.289322
    19  C    0.037158
    20  C   -0.023102
    21  C    0.338792
    22  C   -0.376472
    23  C   -0.019179
    24  C   -0.275517
    25  N   -0.682176
    26  C    0.241173
    27  C    0.102453
    28  C   -0.032525
    29  C    0.374258
    30  C   -0.382717
    31  C   -0.235596
    32  C   -0.315718
    33  N   -0.709352
    34  C    0.253983
    35  C    0.025821
    36  C   -0.031034
    37  C    0.263126
    38  C   -0.369525
    39  C    0.404033
    40  O   -0.466602
    41  C   -0.291355
    42  C    0.594743
    43  O   -0.474129
    44  O   -0.479870
    45  C   -0.063007
    46  C    0.009135
    47  C   -0.114174
    48  C    0.092988
    49  C   -0.344029
    50  C   -0.218977
    51  C   -0.200100
    52  C   -0.179362
    53  C   -0.012425
    54  C   -0.296036
    55  C   -0.191931
    56  C   -0.169949
    57  C   -0.176579
    58  C   -0.070386
    59  C   -0.305012
    60  C   -0.158319
    61  C   -0.188956
    62  C   -0.123315
    63  C   -0.045908
    64  C   -0.314512
    65  C   -0.281248
    66  H    0.085495
    67  H    0.087741
    68  H    0.092820
    69  H    0.123917
    70  H    0.080742
    71  H    0.117380
    72  H    0.111606
    73  H    0.108621
    74  H    0.120459
    75  H    0.125252
    76  H    0.133345
    77  H    0.152854
    78  H    0.133954
    79  H    0.111576
    80  H    0.100156
    81  H    0.093198
    82  H    0.111236
    83  H    0.122003
    84  H    0.124443
    85  H    0.121829
    86  H    0.091777
    87  H    0.118014
    88  H    0.099832
    89  H    0.102758
    90  H    0.113266
    91  H    0.117382
    92  H    0.103578
    93  H    0.143147
    94  H    0.131914
    95  H    0.172620
    96  H    0.094767
    97  H    0.141007
    98  H    0.123274
    99  H    0.108995
   100  H    0.103803
   101  H    0.103011
   102  H    0.102758
   103  H    0.123441
   104  H    0.117226
   105  H    0.099220
   106  H    0.100209
   107  H    0.106554
   108  H    0.080395
   109  H    0.089452
   110  H    0.092879
   111  H    0.094125
   112  H    0.096488
   113  H    0.117291
   114  H    0.054282
   115  H    0.074579
   116  H    0.091801
   117  H    0.070629
   118  H    0.089721
   119  H    0.076408
   120  H    0.102740
   121  H    0.077713
   122  H    0.096646
   123  H    0.097754
   124  H    0.097103
   125  H    0.081208
   126  H    0.105997
   127  H    0.080942
   128  H    0.092102
   129  H    0.072753
   130  H    0.013747
   131  H    0.084921
   132  H    0.091077
   133  H    0.104792
   134  H    0.113157
   135  H    0.076633
   136  H    0.111947
   137  H    0.081091
 Sum of Mulliken charges =   0.00000

 Dipole moment (field-independent basis, Debye):
    X=             -0.2714    Y=              6.5181    Z=             -1.3072  Tot=              6.6534
 Quadrupole moment (field-independent basis, Debye-Ang):
   XX=           -341.5657   YY=           -400.0377   ZZ=           -399.6920
   XY=            -29.1054   XZ=              9.2894   YZ=             -1.8514

 Normal termination of Gaussian 09 at Sun Jun 30 09:09:15 2019.
