 Gaussian 09, Revision D.01,
 Gaussian 09:  ES64L-G09RevD.01 24-Apr-2013

 -------------------------------------
 # td=(NStates=1) CAM-B3LYP/6-31G(d,p)
 -------------------------------------

 --
 TD
 --
 Symbolic Z-matrix:
 Charge =  0 Multiplicity = 1

                         Standard orientation:
 ---------------------------------------------------------------------
 Center     Atomic      Atomic             Coordinates (Angstroms)
 Number     Number       Type             X           Y           Z
 ---------------------------------------------------------------------
      1         12           0       -7.116574    0.594687   -0.026930
      2          6           0       -4.757556   -1.913321    0.525521
      3          6           0       -4.851212    2.898879    1.131386
      4          6           0       -9.447488    3.032950   -0.416453
      5          6           0       -9.555924   -1.785183   -0.737752
      6          7           0       -5.098341    0.508667    0.607190
      7          6           0       -4.211138   -0.626976    0.791602
      8          6           0       -2.883090   -0.305596    1.308060
      9          6           0       -3.024908    1.170190    1.690833
     10          6           0       -4.348739    1.544210    1.062078
     11          6           0       -2.968221    1.339691    3.196684
     12          6           0       -1.958969   -0.524522    0.057027
     13          6           0       -0.465677   -0.260557    0.484357
     14          6           0        0.482481   -0.616484   -0.729392
     15          8           0        0.234971   -1.005796   -1.823681
     16          8           0        1.859072   -0.542306   -0.278464
     17          7           0       -7.134847    2.573719    0.299162
     18          6           0       -6.123154    3.312058    0.856146
     19          6           0       -6.470372    4.741162    0.850431
     20          6           0       -7.755616    4.788709    0.454386
     21          6           0       -8.201395    3.418372    0.115294
     22          6           0       -5.509494    5.794813    1.375918
     23          6           0       -8.609512    5.944593    0.338308
     24          6           0       -8.167782    7.230209    0.208508
     25          7           0       -9.137252    0.678410   -0.564439
     26          6           0       -9.897931    1.756828   -0.671274
     27          6           0      -11.268164    1.421811   -1.117547
     28          6           0      -11.354988    0.077512   -1.103725
     29          6           0       -9.960307   -0.476871   -0.765290
     30          6           0      -12.327666    2.327429   -1.488003
     31          6           0      -12.489933   -0.813667   -1.648574
     32          6           0      -12.390677   -1.162676   -3.119987
     33          7           0       -7.234480   -1.403925   -0.064476
     34          6           0       -8.177241   -2.282404   -0.372021
     35          6           0       -7.788802   -3.507798   -0.524745
     36          6           0       -6.381754   -3.471865   -0.165774
     37          6           0       -6.093154   -2.139244    0.056151
     38          6           0       -8.576339   -4.736627   -0.754215
     39          6           0       -5.294479   -4.335323    0.133142
     40          8           0       -5.166142   -5.577293    0.172394
     41          6           0       -4.146136   -3.263309    0.587969
     42          6           0       -3.597129   -3.632263    1.886209
     43          8           0       -3.761871   -3.094088    2.953929
     44          8           0       -2.787299   -4.772143    1.709929
     45          6           0       -2.132877   -5.181312    2.880974
     46          6           0        2.847514   -0.780371   -1.239493
     47          6           0        4.125512   -0.555306   -0.637802
     48          6           0        5.116915    0.266475   -0.885527
     49          6           0        4.968787    1.129072   -2.156698
     50          6           0        6.389453    0.246832   -0.228972
     51          6           0        7.602831   -0.055884   -1.043666
     52          6           0        8.944538   -0.109715   -0.104154
     53          6           0       10.240040   -0.490685   -0.917245
     54          6           0       10.169352   -2.007316   -1.394118
     55          6           0       11.446424   -0.197117    0.005774
     56          6           0       12.743248   -0.442408   -0.710405
     57          6           0       13.987705   -0.021187    0.223686
     58          6           0       15.254058   -0.112496   -0.399900
     59          6           0       15.752128   -1.560353   -0.844070
     60          6           0       16.360658    0.607099    0.392813
     61          6           0       17.783837    0.551169   -0.178823
     62          6           0       18.743813    1.243697    0.737593
     63          6           0       20.349864    1.159007    0.219906
     64          6           0       20.500103    2.128998   -0.928735
     65          6           0       21.181405    1.698702    1.338578
     66          1           0       -4.231491    3.662051    1.440550
     67          1           0      -10.194882    3.911870   -0.416927
     68          1           0      -10.300363   -2.499206   -0.927159
     69          1           0       -2.460804   -0.745201    2.197717
     70          1           0       -2.317461    1.751547    1.425548
     71          1           0       -1.836936    1.303897    3.529030
     72          1           0       -3.131206    2.305027    3.558534
     73          1           0       -3.749814    0.785242    3.594005
     74          1           0       -2.136862   -1.461021   -0.414902
     75          1           0       -2.250559    0.095116   -0.850820
     76          1           0       -0.402630    0.753060    0.707873
     77          1           0       -0.159707   -0.962738    1.313233
     78          1           0       -4.903655    6.381411    0.662475
     79          1           0       -6.082143    6.451915    2.069632
     80          1           0       -4.790563    5.245914    1.969437
     81          1           0       -9.731702    5.763616    0.142956
     82          1           0       -8.685492    8.176731   -0.142492
     83          1           0       -7.221809    7.513534    0.041779
     84          1           0      -12.028333    2.560765   -2.540098
     85          1           0      -13.247512    1.920760   -1.478959
     86          1           0      -12.437291    3.293830   -0.845984
     87          1           0      -12.487232   -1.578739   -0.929408
     88          1           0      -13.482330   -0.189180   -1.698193
     89          1           0      -13.280290   -1.748844   -3.231839
     90          1           0      -12.393063   -0.285081   -3.692963
     91          1           0      -11.342087   -1.524463   -3.264003
     92          1           0       -9.321897   -4.633600   -1.531099
     93          1           0       -7.829706   -5.660176   -0.701418
     94          1           0       -9.265824   -4.930751    0.222212
     95          1           0       -3.393611   -3.591660   -0.088020
     96          1           0       -1.703673   -4.430027    3.512266
     97          1           0       -2.781260   -5.721573    3.547576
     98          1           0       -1.426280   -6.129193    2.760522
     99          1           0        2.482560   -1.649593   -1.779190
    100          1           0        2.498455   -0.327976   -2.258681
    101          1           0        4.322216   -1.308591    0.242274
    102          1           0        3.869235    1.092571   -2.411043
    103          1           0        5.351475    2.083272   -2.057457
    104          1           0        5.626277    0.680032   -2.739930
    105          1           0        6.612470    1.200417    0.348990
    106          1           0        6.264034   -0.259830    0.667723
    107          1           0        7.403915   -0.924536   -1.402047
    108          1           0        7.631665    0.493513   -2.032921
    109          1           0        9.008290    0.781165    0.305520
    110          1           0        8.758388   -0.845780    0.669652
    111          1           0       10.232403    0.121955   -1.892618
    112          1           0        9.383626   -2.174901   -2.225500
    113          1           0       11.162165   -2.262773   -1.996406
    114          1           0        9.834331   -2.627529   -0.458883
    115          1           0       11.437262    0.817553    0.394368
    116          1           0       11.384701   -1.006945    0.870600
    117          1           0       12.798244   -1.425393   -1.163374
    118          1           0       12.572896    0.407737   -1.535582
    119          1           0       13.652172    1.002436    0.280563
    120          1           0       13.880923   -0.755189    1.085797
    121          1           0       15.155040    0.670632   -1.273865
    122          1           0       15.809288   -2.035039    0.132250
    123          1           0       14.916883   -2.232412   -1.265502
    124          1           0       16.543245   -1.671837   -1.485911
    125          1           0       16.052082    1.560990    0.475558
    126          1           0       16.250834    0.291105    1.495344
    127          1           0       18.268021   -0.598964   -0.286556
    128          1           0       17.968307    0.881330   -1.343911
    129          1           0       18.619022    2.425404    0.817697
    130          1           0       18.771829    0.654138    1.636372
    131          1           0       20.488293    0.165832    0.121798
    132          1           0       20.304609    3.060427   -0.758671
    133          1           0       21.483331    2.126132   -1.323271
    134          1           0       19.791747    1.758247   -1.813197
    135          1           0       20.938883    1.075674    2.136945
    136          1           0       22.290850    1.847906    0.975825
    137          1           0       20.974914    2.652890    1.664565
 ---------------------------------------------------------------------

 SCF Done:  E(RCAM-B3LYP) =  -2932.63370105     A.U. after   16 cycles

 Excitation energies and oscillator strengths:

 Excited State   1:      Singlet-A      2.2634 eV  547.79 nm  f=0.2735  <S**2>=0.000
     240 -> 242       -0.19036
     240 -> 243        0.15509
     241 -> 242        0.65118
 This state for optimization and/or second-order correction.
 Total Energy, E(TD-HF/TD-KS) =  -2932.55052412
 Copying the excited state density for this state as the 1-particle RhoCI density.

 The electronic state is 1-A.
 Alpha  occ. eigenvalues --  -46.84584 -19.24713 -19.24241 -19.23249 -19.20531
 Alpha  occ. eigenvalues --  -19.18895 -14.43660 -14.40157 -14.40077 -14.38322
 Alpha  occ. eigenvalues --  -10.40252 -10.38258 -10.34031 -10.32966 -10.31563
 Alpha  occ. eigenvalues --  -10.30974 -10.30868 -10.30622 -10.30490 -10.29811
 Alpha  occ. eigenvalues --  -10.29653 -10.29220 -10.29122 -10.28295 -10.28102
 Alpha  occ. eigenvalues --  -10.27792 -10.27650 -10.27646 -10.27644 -10.27535
 Alpha  occ. eigenvalues --  -10.27475 -10.27470 -10.27190 -10.27159 -10.27139
 Alpha  occ. eigenvalues --  -10.27125 -10.27071 -10.26982 -10.26848 -10.26794
 Alpha  occ. eigenvalues --  -10.26713 -10.26489 -10.26311 -10.26276 -10.26215
 Alpha  occ. eigenvalues --  -10.26201 -10.26036 -10.25917 -10.25764 -10.25616
 Alpha  occ. eigenvalues --  -10.25464 -10.25261 -10.25216 -10.25163 -10.24992
 Alpha  occ. eigenvalues --  -10.24850 -10.24704 -10.24643 -10.24590 -10.24439
 Alpha  occ. eigenvalues --  -10.24423 -10.23297 -10.23243 -10.23229 -10.23156
 Alpha  occ. eigenvalues --   -3.13685  -1.88381  -1.87938  -1.87860  -1.17627
 Alpha  occ. eigenvalues --   -1.16281  -1.09843  -1.08533  -1.07670  -1.05103
 Alpha  occ. eigenvalues --   -1.04520  -1.03821  -1.02835  -0.92605  -0.92044
 Alpha  occ. eigenvalues --   -0.91506  -0.90980  -0.90368  -0.89923  -0.89309
 Alpha  occ. eigenvalues --   -0.89167  -0.88316  -0.87948  -0.86959  -0.86196
 Alpha  occ. eigenvalues --   -0.85459  -0.84673  -0.84180  -0.83352  -0.83247
 Alpha  occ. eigenvalues --   -0.82007  -0.80960  -0.80729  -0.79584  -0.78906
 Alpha  occ. eigenvalues --   -0.78192  -0.77630  -0.76513  -0.76346  -0.75742
 Alpha  occ. eigenvalues --   -0.75321  -0.75154  -0.74304  -0.73863  -0.72883
 Alpha  occ. eigenvalues --   -0.72436  -0.71193  -0.70364  -0.69255  -0.69112
 Alpha  occ. eigenvalues --   -0.67877  -0.67312  -0.66599  -0.65674  -0.65201
 Alpha  occ. eigenvalues --   -0.64417  -0.63957  -0.62926  -0.62329  -0.62066
 Alpha  occ. eigenvalues --   -0.61618  -0.61102  -0.61086  -0.60395  -0.59827
 Alpha  occ. eigenvalues --   -0.58996  -0.58446  -0.57974  -0.57133  -0.56738
 Alpha  occ. eigenvalues --   -0.56675  -0.56073  -0.55897  -0.55654  -0.54933
 Alpha  occ. eigenvalues --   -0.54492  -0.54171  -0.53962  -0.53835  -0.53609
 Alpha  occ. eigenvalues --   -0.53360  -0.52877  -0.52431  -0.52196  -0.51866
 Alpha  occ. eigenvalues --   -0.51494  -0.51188  -0.51114  -0.50989  -0.50839
 Alpha  occ. eigenvalues --   -0.50620  -0.50375  -0.50293  -0.50065  -0.49792
 Alpha  occ. eigenvalues --   -0.49493  -0.49109  -0.48749  -0.48478  -0.48426
 Alpha  occ. eigenvalues --   -0.48285  -0.48100  -0.47878  -0.47711  -0.47563
 Alpha  occ. eigenvalues --   -0.47312  -0.47258  -0.46812  -0.46627  -0.46520
 Alpha  occ. eigenvalues --   -0.46446  -0.46133  -0.45565  -0.45546  -0.45448
 Alpha  occ. eigenvalues --   -0.45124  -0.45035  -0.44794  -0.44590  -0.44277
 Alpha  occ. eigenvalues --   -0.44204  -0.44112  -0.43822  -0.43705  -0.43555
 Alpha  occ. eigenvalues --   -0.43313  -0.43204  -0.43032  -0.42737  -0.42548
 Alpha  occ. eigenvalues --   -0.42495  -0.42015  -0.41936  -0.41627  -0.41576
 Alpha  occ. eigenvalues --   -0.41258  -0.40987  -0.40934  -0.40733  -0.40555
 Alpha  occ. eigenvalues --   -0.40469  -0.40130  -0.40007  -0.39858  -0.39567
 Alpha  occ. eigenvalues --   -0.39184  -0.39106  -0.38771  -0.38556  -0.37875
 Alpha  occ. eigenvalues --   -0.37825  -0.37383  -0.37291  -0.36915  -0.36614
 Alpha  occ. eigenvalues --   -0.36451  -0.36239  -0.36005  -0.35656  -0.35175
 Alpha  occ. eigenvalues --   -0.34744  -0.34225  -0.34193  -0.34021  -0.33223
 Alpha  occ. eigenvalues --   -0.32331  -0.32309  -0.31925  -0.31197  -0.29260
 Alpha  occ. eigenvalues --   -0.29241  -0.28621  -0.28584  -0.27526  -0.23628
 Alpha  occ. eigenvalues --   -0.22143
 Alpha virt. eigenvalues --   -0.07092  -0.02085   0.01008   0.03100   0.05013
 Alpha virt. eigenvalues --    0.05769   0.06227   0.06270   0.07041   0.07159
 Alpha virt. eigenvalues --    0.08419   0.10096   0.11194   0.11616   0.11764

 Mulliken charges:
               1
     1  Mg   0.824617
     2  C    0.095617
     3  C   -0.207771
     4  C   -0.214078
     5  C   -0.174748
     6  N   -0.612375
     7  C    0.255867
     8  C   -0.138088
     9  C   -0.112145
    10  C    0.347122
    11  C   -0.322718
    12  C   -0.199243
    13  C   -0.261031
    14  C    0.592857
    15  O   -0.431928
    16  O   -0.504193
    17  N   -0.735542
    18  C    0.335529
    19  C    0.032017
    20  C    0.015061
    21  C    0.340862
    22  C   -0.372503
    23  C   -0.094012
    24  C   -0.253699
    25  N   -0.689937
    26  C    0.353729
    27  C    0.040712
    28  C   -0.011429
    29  C    0.281927
    30  C   -0.367154
    31  C   -0.228693
    32  C   -0.296557
    33  N   -0.727043
    34  C    0.275603
    35  C    0.059317
    36  C   -0.007428
    37  C    0.261735
    38  C   -0.383946
    39  C    0.336943
    40  O   -0.489722
    41  C   -0.373260
    42  C    0.653031
    43  O   -0.475392
    44  O   -0.466365
    45  C   -0.085866
    46  C    0.005900
    47  C   -0.118289
    48  C    0.112558
    49  C   -0.352262
    50  C   -0.228939
    51  C   -0.195381
    52  C   -0.172218
    53  C   -0.067874
    54  C   -0.304678
    55  C   -0.152648
    56  C   -0.191408
    57  C   -0.162180
    58  C   -0.044848
    59  C   -0.318009
    60  C   -0.159776
    61  C   -0.159027
    62  C   -0.172151
    63  C   -0.067719
    64  C   -0.293056
    65  C   -0.294053
    66  H    0.066895
    67  H    0.080589
    68  H    0.088835
    69  H    0.139789
    70  H    0.098709
    71  H    0.102437
    72  H    0.115847
    73  H    0.142281
    74  H    0.136202
    75  H    0.115949
    76  H    0.145534
    77  H    0.149986
    78  H    0.132165
    79  H    0.132599
    80  H    0.117751
    81  H    0.096747
    82  H    0.104773
    83  H    0.111120
    84  H    0.127477
    85  H    0.126571
    86  H    0.104785
    87  H    0.116971
    88  H    0.085682
    89  H    0.119776
    90  H    0.116378
    91  H    0.109551
    92  H    0.115413
    93  H    0.144400
    94  H    0.097316
    95  H    0.171900
    96  H    0.122551
    97  H    0.118577
    98  H    0.099480
    99  H    0.121680
   100  H    0.092280
   101  H    0.072128
   102  H    0.108958
   103  H    0.109301
   104  H    0.126359
   105  H    0.082872
   106  H    0.102304
   107  H    0.118258
   108  H    0.084254
   109  H    0.104701
   110  H    0.097134
   111  H    0.078043
   112  H    0.098717
   113  H    0.096199
   114  H    0.097666
   115  H    0.095109
   116  H    0.067472
   117  H    0.101040
   118  H    0.063429
   119  H    0.100040
   120  H    0.082862
   121  H    0.061751
   122  H    0.103134
   123  H    0.081590
   124  H    0.122467
   125  H    0.104593
   126  H    0.072639
   127  H    0.060039
   128  H    0.075786
   129  H    0.074254
   130  H    0.096664
   131  H    0.094812
   132  H    0.115565
   133  H    0.099458
   134  H    0.069277
   135  H    0.096885
   136  H    0.077733
   137  H    0.107888
 Sum of Mulliken charges =   0.00000

 Dipole moment (field-independent basis, Debye):
    X=              0.0226    Y=              8.8340    Z=              0.1356  Tot=              8.8351
 Quadrupole moment (field-independent basis, Debye-Ang):
   XX=           -335.5657   YY=           -400.4970   ZZ=           -398.4933
   XY=            -41.1318   XZ=             17.6857   YZ=              0.7161

 Normal termination of Gaussian 09 at Sat Jun 29 10:58:52 2019.
