 Gaussian 09, Revision D.01,
 Gaussian 09:  ES64L-G09RevD.01 24-Apr-2013

 -------------------------------------
 # td=(NStates=1) CAM-B3LYP/6-31G(d,p)
 -------------------------------------

 --
 TD
 --
 Symbolic Z-matrix:
 Charge =  0 Multiplicity = 1

                         Standard orientation:
 ---------------------------------------------------------------------
 Center     Atomic      Atomic             Coordinates (Angstroms)
 Number     Number       Type             X           Y           Z
 ---------------------------------------------------------------------
      1         12           0       -7.158878    0.590117    0.094645
      2          6           0       -4.869705   -1.971582    0.563800
      3          6           0       -4.879628    2.896911    1.103667
      4          6           0       -9.485979    3.028836   -0.289405
      5          6           0       -9.495449   -1.843565   -1.024902
      6          7           0       -5.139804    0.478278    0.750474
      7          6           0       -4.280630   -0.709992    0.726457
      8          6           0       -2.863944   -0.295802    1.199473
      9          6           0       -3.019441    1.187319    1.601349
     10          6           0       -4.467441    1.612162    1.081194
     11          6           0       -2.938613    1.423598    3.118902
     12          6           0       -1.999478   -0.419867   -0.055296
     13          6           0       -0.550597   -0.345879    0.502545
     14          6           0        0.570570   -0.704858   -0.558108
     15          8           0        0.286980   -1.157733   -1.652902
     16          8           0        1.788966   -0.302832   -0.148508
     17          7           0       -7.180145    2.646457    0.372643
     18          6           0       -6.212777    3.417355    0.806538
     19          6           0       -6.530772    4.832945    0.829278
     20          6           0       -7.917439    4.830692    0.580238
     21          6           0       -8.338146    3.438514    0.129642
     22          6           0       -5.726823    5.878260    1.282010
     23          6           0       -8.799700    6.061909    0.356267
     24          6           0       -8.370065    7.286645    0.056098
     25          7           0       -9.085492    0.653793   -0.556600
     26          6           0      -10.014757    1.733387   -0.584100
     27          6           0      -11.317204    1.331819   -1.022387
     28          6           0      -11.165290    0.002202   -1.369463
     29          6           0       -9.895358   -0.414696   -0.909370
     30          6           0      -12.439704    2.295075   -1.453086
     31          6           0      -12.331368   -0.841876   -1.892915
     32          6           0      -12.079615   -1.274979   -3.296263
     33          7           0       -7.224621   -1.374403   -0.165769
     34          6           0       -8.228923   -2.255403   -0.542680
     35          6           0       -7.844282   -3.664762   -0.500546
     36          6           0       -6.480747   -3.494901   -0.023117
     37          6           0       -6.146442   -2.125917    0.105497
     38          6           0       -8.580266   -4.925538   -0.845214
     39          6           0       -5.311172   -4.360766    0.264679
     40          8           0       -5.132671   -5.528322    0.327502
     41          6           0       -4.103756   -3.232474    0.665796
     42          6           0       -3.524765   -3.629226    1.937750
     43          8           0       -3.734119   -3.035435    2.980401
     44          8           0       -2.655561   -4.689146    1.768828
     45          6           0       -2.117045   -5.138950    3.019662
     46          6           0        2.840928   -0.664220   -1.080206
     47          6           0        4.157433   -0.409425   -0.367092
     48          6           0        5.195601    0.253625   -0.989172
     49          6           0        5.063636    0.960684   -2.439665
     50          6           0        6.446524    0.327592   -0.219547
     51          6           0        7.667360   -0.407048   -0.987867
     52          6           0        8.892848   -0.261466   -0.143047
     53          6           0       10.157231   -0.663565   -0.785443
     54          6           0       10.273478   -2.138674   -1.097859
     55          6           0       11.442376   -0.272724    0.027331
     56          6           0       12.850297   -0.518469   -0.609141
     57          6           0       13.995730    0.074575    0.274778
     58          6           0       15.515664   -0.101203   -0.438313
     59          6           0       15.605808   -1.635890   -0.818399
     60          6           0       16.544602    0.454793    0.410633
     61          6           0       17.847076    0.687589   -0.220242
     62          6           0       18.832796    1.316135    0.708004
     63          6           0       20.233727    1.461869    0.126032
     64          6           0       20.330809    2.054457   -1.159350
     65          6           0       21.195492    2.083873    1.153363
     66          1           0       -4.285904    3.766770    1.566525
     67          1           0      -10.202999    3.833162   -0.191183
     68          1           0      -10.289745   -2.448570   -1.405990
     69          1           0       -2.593647   -0.950595    1.965944
     70          1           0       -2.267671    1.500128    1.155595
     71          1           0       -2.148579    1.084761    3.426473
     72          1           0       -3.095773    2.486465    3.406885
     73          1           0       -3.814708    0.717076    3.569901
     74          1           0       -2.258314   -1.457924   -0.427384
     75          1           0       -2.136579    0.679220   -0.632667
     76          1           0       -0.274643    0.644346    1.000308
     77          1           0       -0.558503   -1.274743    1.063728
     78          1           0       -4.982548    6.456744    0.601669
     79          1           0       -6.170947    6.873050    1.685898
     80          1           0       -4.881240    5.721152    1.985683
     81          1           0       -9.829929    5.792229    0.392340
     82          1           0       -9.111065    8.195323   -0.021889
     83          1           0       -7.413096    7.624031   -0.133075
     84          1           0      -12.005427    2.771262   -2.268420
     85          1           0      -13.452378    1.840523   -1.668951
     86          1           0      -12.708947    2.938096   -0.667040
     87          1           0      -12.377938   -1.600238   -1.144032
     88          1           0      -13.265499   -0.418163   -1.665939
     89          1           0      -13.040504   -2.042518   -3.488489
     90          1           0      -12.288331   -0.508781   -4.237990
     91          1           0      -11.334659   -1.863473   -3.459587
     92          1           0       -9.025766   -4.857545   -1.839252
     93          1           0       -8.010910   -5.699100   -0.777102
     94          1           0       -9.453675   -5.028936   -0.081015
     95          1           0       -3.353999   -3.429110   -0.083112
     96          1           0       -1.499218   -4.390804    3.536229
     97          1           0       -2.808822   -5.786233    3.527298
     98          1           0       -1.112501   -5.657246    2.810791
     99          1           0        2.650191   -1.769146   -1.313936
    100          1           0        2.797807   -0.099403   -2.080903
    101          1           0        4.264574   -0.764357    0.636614
    102          1           0        4.133433    1.100310   -2.962613
    103          1           0        5.394529    1.955359   -2.506991
    104          1           0        5.763425    0.387795   -3.008330
    105          1           0        6.767399    1.286851   -0.177969
    106          1           0        6.514341   -0.130006    0.822302
    107          1           0        7.377825   -1.540992   -0.991366
    108          1           0        7.634636    0.149505   -2.047106
    109          1           0        9.346563    0.883253   -0.131922
    110          1           0        8.763620   -0.668043    1.047439
    111          1           0       10.189278   -0.239622   -1.695190
    112          1           0        9.331569   -2.349192   -1.802897
    113          1           0       11.275843   -2.589200   -1.369991
    114          1           0       10.198084   -2.665007   -0.244229
    115          1           0       11.591753    0.826865    0.265327
    116          1           0       11.405138   -0.646135    0.993491
    117          1           0       13.143722   -1.610669   -0.751817
    118          1           0       12.848474    0.107366   -1.483862
    119          1           0       13.772697    1.072146    0.333236
    120          1           0       14.101678   -0.563755    1.104186
    121          1           0       15.501418    0.276494   -1.477544
    122          1           0       15.638870   -2.420600    0.072768
    123          1           0       14.797855   -1.968225   -1.489183
    124          1           0       16.608601   -1.826847   -1.249463
    125          1           0       16.069682    1.439144    0.688920
    126          1           0       16.551401   -0.041110    1.363659
    127          1           0       18.380974   -0.396450   -0.287415
    128          1           0       17.837178    1.332776   -1.175161
    129          1           0       18.388402    2.134140    1.072006
    130          1           0       18.869736    0.606031    1.648020
    131          1           0       20.440298    0.323477    0.047036
    132          1           0       20.263148    3.166005   -1.001889
    133          1           0       21.290569    1.977594   -2.027022
    134          1           0       19.658893    1.431900   -1.836524
    135          1           0       21.238901    1.654349    2.222357
    136          1           0       22.080166    2.019464    0.465417
    137          1           0       21.064003    3.190421    1.232104
 ---------------------------------------------------------------------

 SCF Done:  E(RCAM-B3LYP) =  -2932.55098213     A.U. after   15 cycles

 Excitation energies and oscillator strengths:

 Excited State   1:      Singlet-A      2.1418 eV  578.88 nm  f=0.2341  <S**2>=0.000
     240 -> 243       -0.26367
     241 -> 242        0.64320
 This state for optimization and/or second-order correction.
 Total Energy, E(TD-HF/TD-KS) =  -2932.47227306
 Copying the excited state density for this state as the 1-particle RhoCI density.

 The electronic state is 1-A.
 Alpha  occ. eigenvalues --  -46.83490 -19.26418 -19.25988 -19.21376 -19.20422
 Alpha  occ. eigenvalues --  -19.20172 -14.40660 -14.39699 -14.39228 -14.39130
 Alpha  occ. eigenvalues --  -10.38737 -10.38351 -10.35631 -10.32167 -10.31096
 Alpha  occ. eigenvalues --  -10.30963 -10.30466 -10.30190 -10.29725 -10.29484
 Alpha  occ. eigenvalues --  -10.29072 -10.28909 -10.28798 -10.28781 -10.28557
 Alpha  occ. eigenvalues --  -10.28423 -10.28343 -10.28263 -10.28036 -10.27884
 Alpha  occ. eigenvalues --  -10.27855 -10.27706 -10.27248 -10.27167 -10.27033
 Alpha  occ. eigenvalues --  -10.26722 -10.26682 -10.26556 -10.26375 -10.26366
 Alpha  occ. eigenvalues --  -10.26345 -10.26298 -10.26192 -10.26118 -10.26089
 Alpha  occ. eigenvalues --  -10.25897 -10.25868 -10.25785 -10.25737 -10.25720
 Alpha  occ. eigenvalues --  -10.25719 -10.25409 -10.25320 -10.25258 -10.25240
 Alpha  occ. eigenvalues --  -10.25131 -10.25048 -10.25002 -10.24803 -10.24739
 Alpha  occ. eigenvalues --  -10.24425 -10.24371 -10.24309 -10.24068 -10.23778
 Alpha  occ. eigenvalues --   -3.12594  -1.87300  -1.86828  -1.86787  -1.17699
 Alpha  occ. eigenvalues --   -1.16831  -1.13272  -1.08714  -1.08527  -1.04114
 Alpha  occ. eigenvalues --   -1.03372  -1.01214  -1.00435  -0.92516  -0.91835
 Alpha  occ. eigenvalues --   -0.91438  -0.90454  -0.89678  -0.89334  -0.88939
 Alpha  occ. eigenvalues --   -0.88887  -0.88054  -0.87494  -0.86181  -0.85542
 Alpha  occ. eigenvalues --   -0.85083  -0.84085  -0.83785  -0.83480  -0.82950
 Alpha  occ. eigenvalues --   -0.81414  -0.81118  -0.80246  -0.79893  -0.78452
 Alpha  occ. eigenvalues --   -0.77850  -0.77139  -0.76900  -0.75956  -0.75550
 Alpha  occ. eigenvalues --   -0.75451  -0.75282  -0.74455  -0.72891  -0.72539
 Alpha  occ. eigenvalues --   -0.71651  -0.70684  -0.69611  -0.68651  -0.67760
 Alpha  occ. eigenvalues --   -0.67319  -0.66713  -0.65851  -0.64309  -0.64188
 Alpha  occ. eigenvalues --   -0.63717  -0.62963  -0.62679  -0.62508  -0.61836
 Alpha  occ. eigenvalues --   -0.61656  -0.60871  -0.60379  -0.59936  -0.59003
 Alpha  occ. eigenvalues --   -0.58605  -0.58027  -0.57553  -0.57136  -0.56565
 Alpha  occ. eigenvalues --   -0.55887  -0.55709  -0.55507  -0.55391  -0.54846
 Alpha  occ. eigenvalues --   -0.54788  -0.54387  -0.53639  -0.53405  -0.53112
 Alpha  occ. eigenvalues --   -0.52969  -0.52726  -0.52544  -0.52235  -0.51866
 Alpha  occ. eigenvalues --   -0.51667  -0.51512  -0.51319  -0.51260  -0.51066
 Alpha  occ. eigenvalues --   -0.50523  -0.50127  -0.49958  -0.49698  -0.49591
 Alpha  occ. eigenvalues --   -0.49517  -0.49344  -0.49132  -0.48915  -0.48749
 Alpha  occ. eigenvalues --   -0.48699  -0.48048  -0.47903  -0.47459  -0.47239
 Alpha  occ. eigenvalues --   -0.46993  -0.46715  -0.46690  -0.46244  -0.46008
 Alpha  occ. eigenvalues --   -0.45814  -0.45627  -0.45508  -0.45338  -0.45026
 Alpha  occ. eigenvalues --   -0.44872  -0.44753  -0.44487  -0.44410  -0.44124
 Alpha  occ. eigenvalues --   -0.43996  -0.43962  -0.43748  -0.43600  -0.43516
 Alpha  occ. eigenvalues --   -0.43222  -0.43083  -0.43008  -0.42796  -0.42209
 Alpha  occ. eigenvalues --   -0.41912  -0.41689  -0.41538  -0.41291  -0.40825
 Alpha  occ. eigenvalues --   -0.40697  -0.40406  -0.40156  -0.40091  -0.39867
 Alpha  occ. eigenvalues --   -0.39500  -0.39360  -0.39055  -0.39035  -0.38816
 Alpha  occ. eigenvalues --   -0.38718  -0.38209  -0.38125  -0.37819  -0.37592
 Alpha  occ. eigenvalues --   -0.37186  -0.37091  -0.36751  -0.36444  -0.36334
 Alpha  occ. eigenvalues --   -0.36128  -0.36028  -0.35876  -0.35635  -0.35370
 Alpha  occ. eigenvalues --   -0.35068  -0.34167  -0.33790  -0.33339  -0.33109
 Alpha  occ. eigenvalues --   -0.32838  -0.32529  -0.32361  -0.30394  -0.29510
 Alpha  occ. eigenvalues --   -0.29199  -0.28793  -0.28013  -0.27369  -0.23125
 Alpha  occ. eigenvalues --   -0.21466
 Alpha virt. eigenvalues --   -0.06073  -0.03167   0.01687   0.04652   0.05794
 Alpha virt. eigenvalues --    0.06166   0.06768   0.07055   0.07362   0.07946
 Alpha virt. eigenvalues --    0.08646   0.10563   0.11004   0.11258   0.11603

 Mulliken charges:
               1
     1  Mg   0.808212
     2  C    0.088736
     3  C   -0.199280
     4  C   -0.188007
     5  C   -0.147469
     6  N   -0.644138
     7  C    0.252346
     8  C   -0.165188
     9  C   -0.090899
    10  C    0.359703
    11  C   -0.286231
    12  C   -0.171207
    13  C   -0.262905
    14  C    0.586980
    15  O   -0.470108
    16  O   -0.465207
    17  N   -0.700907
    18  C    0.321563
    19  C    0.111234
    20  C   -0.043068
    21  C    0.319270
    22  C   -0.447893
    23  C   -0.049751
    24  C   -0.243251
    25  N   -0.666651
    26  C    0.261278
    27  C   -0.009606
    28  C    0.002505
    29  C    0.270907
    30  C   -0.361313
    31  C   -0.230380
    32  C   -0.282697
    33  N   -0.749243
    34  C    0.244211
    35  C    0.059313
    36  C   -0.081018
    37  C    0.381728
    38  C   -0.352229
    39  C    0.357760
    40  O   -0.422422
    41  C   -0.376727
    42  C    0.650596
    43  O   -0.479890
    44  O   -0.468219
    45  C   -0.078793
    46  C    0.009958
    47  C   -0.130527
    48  C    0.104134
    49  C   -0.380419
    50  C   -0.224131
    51  C   -0.192096
    52  C   -0.137495
    53  C   -0.053094
    54  C   -0.313030
    55  C   -0.189172
    56  C   -0.193785
    57  C   -0.184927
    58  C   -0.069622
    59  C   -0.327125
    60  C   -0.151689
    61  C   -0.172336
    62  C   -0.160721
    63  C   -0.038305
    64  C   -0.299780
    65  C   -0.312985
    66  H    0.070665
    67  H    0.078126
    68  H    0.102716
    69  H    0.129543
    70  H    0.078694
    71  H    0.113782
    72  H    0.103013
    73  H    0.102717
    74  H    0.129352
    75  H    0.101323
    76  H    0.131191
    77  H    0.133993
    78  H    0.111967
    79  H    0.124590
    80  H    0.124334
    81  H    0.093673
    82  H    0.091255
    83  H    0.114518
    84  H    0.142793
    85  H    0.105445
    86  H    0.120523
    87  H    0.116275
    88  H    0.110941
    89  H    0.057933
    90  H    0.100063
    91  H    0.126930
    92  H    0.128645
    93  H    0.153550
    94  H    0.122261
    95  H    0.159370
    96  H    0.123900
    97  H    0.141645
    98  H    0.100174
    99  H    0.122377
   100  H    0.115848
   101  H    0.096787
   102  H    0.127108
   103  H    0.123971
   104  H    0.129972
   105  H    0.115611
   106  H    0.100898
   107  H    0.103222
   108  H    0.089480
   109  H    0.074057
   110  H    0.068673
   111  H    0.099881
   112  H    0.079110
   113  H    0.095797
   114  H    0.106499
   115  H    0.068308
   116  H    0.095579
   117  H    0.089578
   118  H    0.096526
   119  H    0.095300
   120  H    0.103534
   121  H    0.084032
   122  H    0.069178
   123  H    0.112062
   124  H    0.096703
   125  H    0.083077
   126  H    0.097336
   127  H    0.069271
   128  H    0.097901
   129  H    0.092827
   130  H    0.071591
   131  H    0.075412
   132  H    0.103770
   133  H    0.065373
   134  H    0.113975
   135  H    0.101013
   136  H    0.103681
   137  H    0.094283
 Sum of Mulliken charges =   0.00000

 Dipole moment (field-independent basis, Debye):
    X=              1.2239    Y=              4.2933    Z=             -0.2080  Tot=              4.4692
 Quadrupole moment (field-independent basis, Debye-Ang):
   XX=           -335.8682   YY=           -384.8378   ZZ=           -399.7445
   XY=             -6.4981   XZ=             12.8833   YZ=             -3.1220

 Normal termination of Gaussian 09 at Sat Jun 29 14:12:29 2019.
