 Gaussian 09, Revision D.01,
 Gaussian 09:  ES64L-G09RevD.01 24-Apr-2013

 -------------------------------------
 # td=(NStates=1) CAM-B3LYP/6-31G(d,p)
 -------------------------------------

 --
 TD
 --
 Symbolic Z-matrix:
 Charge =  0 Multiplicity = 1

                         Standard orientation:
 ---------------------------------------------------------------------
 Center     Atomic      Atomic             Coordinates (Angstroms)
 Number     Number       Type             X           Y           Z
 ---------------------------------------------------------------------
      1         12           0       -7.136760    0.590866    0.139552
      2          6           0       -4.909787   -1.944953    0.568028
      3          6           0       -4.787016    2.766555    1.374081
      4          6           0       -9.282466    3.173640   -0.425845
      5          6           0       -9.390467   -1.638024   -0.966288
      6          7           0       -5.139878    0.420160    0.820226
      7          6           0       -4.346118   -0.827587    0.857585
      8          6           0       -2.946861   -0.550275    1.278719
      9          6           0       -3.004554    1.079461    1.842752
     10          6           0       -4.401206    1.433045    1.325950
     11          6           0       -2.790592    1.272618    3.263953
     12          6           0       -1.981567   -0.601181    0.166395
     13          6           0       -0.483681   -0.531979    0.692348
     14          6           0        0.522688   -0.639443   -0.500597
     15          8           0        0.122386   -0.921659   -1.644203
     16          8           0        1.812657   -0.462201   -0.124996
     17          7           0       -7.031172    2.589680    0.474809
     18          6           0       -6.014710    3.214994    0.989240
     19          6           0       -6.367354    4.748323    0.959263
     20          6           0       -7.690709    4.882418    0.474487
     21          6           0       -8.063179    3.515312    0.100025
     22          6           0       -5.443744    5.829089    1.462761
     23          6           0       -8.456790    6.050735    0.328150
     24          6           0       -8.028357    7.344026    0.109455
     25          7           0       -9.062627    0.703031   -0.663265
     26          6           0       -9.811490    1.810257   -0.686357
     27          6           0      -11.190111    1.555666   -1.200795
     28          6           0      -11.223159    0.178390   -1.356925
     29          6           0       -9.929767   -0.383219   -0.871614
     30          6           0      -12.316260    2.444860   -1.449258
     31          6           0      -12.353245   -0.694356   -1.771061
     32          6           0      -12.187844   -1.044997   -3.234168
     33          7           0       -7.217263   -1.384447   -0.150122
     34          6           0       -8.223441   -2.192553   -0.582620
     35          6           0       -7.865779   -3.537986   -0.645294
     36          6           0       -6.491004   -3.547494   -0.180460
     37          6           0       -6.205135   -2.118214    0.055348
     38          6           0       -8.691372   -4.833741   -0.827634
     39          6           0       -5.354925   -4.338155    0.113887
     40          8           0       -5.046103   -5.506868    0.022672
     41          6           0       -4.185021   -3.284021    0.545135
     42          6           0       -3.571158   -3.724792    1.877156
     43          8           0       -3.880595   -3.181555    3.013569
     44          8           0       -2.844330   -4.785475    1.803430
     45          6           0       -2.260901   -5.343204    2.970972
     46          6           0        2.768813   -0.789457   -1.309391
     47          6           0        4.122375   -0.618894   -0.785588
     48          6           0        5.057297    0.232447   -1.143717
     49          6           0        4.866054    1.254148   -2.258670
     50          6           0        6.352824    0.385074   -0.445549
     51          6           0        7.640499   -0.106485   -1.114628
     52          6           0        8.888779   -0.017435   -0.272440
     53          6           0       10.194332   -0.465958   -0.992438
     54          6           0        9.993052   -1.991318   -1.408479
     55          6           0       11.390052   -0.202629   -0.089269
     56          6           0       12.698528   -0.397247   -0.637609
     57          6           0       13.949969    0.077028    0.273952
     58          6           0       15.321204   -0.090346   -0.410053
     59          6           0       15.540224   -1.464089   -0.827210
     60          6           0       16.507109    0.409676    0.457482
     61          6           0       17.734273    0.595543   -0.180624
     62          6           0       18.774725    1.270571    0.765836
     63          6           0       20.265694    1.157151    0.233953
     64          6           0       20.486761    2.051018   -1.085458
     65          6           0       21.093220    1.648678    1.336088
     66          1           0       -3.951983    3.521504    1.500100
     67          1           0       -9.826559    3.887772   -0.726119
     68          1           0      -10.084060   -2.438442   -1.366189
     69          1           0       -2.491493   -1.218767    2.032764
     70          1           0       -2.251063    1.698409    1.300378
     71          1           0       -1.787325    0.816006    3.794154
     72          1           0       -2.712848    2.383214    3.550797
     73          1           0       -3.763858    0.770401    3.851444
     74          1           0       -2.225455   -1.578167   -0.142127
     75          1           0       -2.114314    0.144451   -0.603753
     76          1           0       -0.433372    0.433984    1.208068
     77          1           0       -0.439007   -1.446536    1.369405
     78          1           0       -4.988417    6.439277    0.601873
     79          1           0       -6.032050    6.540610    2.078846
     80          1           0       -4.512232    5.698333    2.205640
     81          1           0       -9.629131    5.944184    0.180601
     82          1           0       -8.631669    8.123970   -0.031308
     83          1           0       -7.034184    7.639756   -0.098915
     84          1           0      -12.159995    3.069609   -2.390431
     85          1           0      -13.296528    1.912624   -1.544878
     86          1           0      -12.272913    3.240251   -0.636876
     87          1           0      -12.358120   -1.539418   -1.179583
     88          1           0      -13.411860   -0.298304   -1.578792
     89          1           0      -12.901887   -1.761977   -3.414700
     90          1           0      -11.987293   -0.276775   -3.866973
     91          1           0      -11.296479   -1.577385   -3.327174
     92          1           0       -9.572669   -4.978365   -1.738586
     93          1           0       -8.073598   -5.786898   -1.029289
     94          1           0       -9.338183   -5.082962   -0.015143
     95          1           0       -3.586638   -3.197567   -0.281237
     96          1           0       -1.450625   -4.638753    3.526360
     97          1           0       -3.135231   -5.230422    3.593854
     98          1           0       -1.791877   -6.304854    2.662723
     99          1           0        2.405027   -1.811644   -1.616819
    100          1           0        2.356632   -0.002533   -1.917349
    101          1           0        4.401777   -1.179144    0.024789
    102          1           0        3.895735    1.283795   -2.897528
    103          1           0        5.100739    2.359372   -1.752390
    104          1           0        5.767543    1.173445   -3.017020
    105          1           0        6.477149    1.376048   -0.203894
    106          1           0        6.305659   -0.251332    0.356736
    107          1           0        7.407640   -1.227368   -1.303928
    108          1           0        8.121936    0.356694   -2.228522
    109          1           0        8.945165    0.957626   -0.047556
    110          1           0        8.913298   -0.519585    0.583185
    111          1           0       10.107579    0.056295   -1.945162
    112          1           0        9.115986   -2.379102   -1.931566
    113          1           0       10.882819   -2.374905   -2.015992
    114          1           0        9.843399   -2.515211   -0.428262
    115          1           0       11.200750    0.737375    0.518349
    116          1           0       11.137867   -1.051253    0.807705
    117          1           0       12.950837   -1.519636   -0.699933
    118          1           0       12.653674   -0.030329   -1.745835
    119          1           0       13.853027    1.076013    0.734656
    120          1           0       13.867644   -0.789042    1.252341
    121          1           0       15.339168    0.433838   -1.287273
    122          1           0       15.770321   -2.080446    0.125875
    123          1           0       14.780644   -2.040015   -1.247861
    124          1           0       16.538425   -1.444513   -1.701102
    125          1           0       16.099930    1.382531    0.994192
    126          1           0       16.448326   -0.261508    1.256868
    127          1           0       18.093697   -0.382420   -0.470426
    128          1           0       17.677445    1.225965   -1.077968
    129          1           0       18.412024    2.204729    0.763454
    130          1           0       18.781786    0.888244    1.580669
    131          1           0       20.661320    0.066555    0.013843
    132          1           0       20.140862    2.933832   -0.849819
    133          1           0       21.505576    2.241986   -1.497863
    134          1           0       19.820214    1.521938   -1.812107
    135          1           0       20.901457    1.022033    2.219445
    136          1           0       22.145621    1.715356    1.020761
    137          1           0       20.687589    2.646093    1.770670
 ---------------------------------------------------------------------

 SCF Done:  E(RCAM-B3LYP) =  -2932.60046696     A.U. after   15 cycles

 Excitation energies and oscillator strengths:

 Excited State   1:      Singlet-A      2.3733 eV  522.42 nm  f=0.2283  <S**2>=0.000
     240 -> 242        0.17974
     240 -> 243       -0.21187
     241 -> 242        0.62592
     241 -> 243        0.11920
 This state for optimization and/or second-order correction.
 Total Energy, E(TD-HF/TD-KS) =  -2932.51325042
 Copying the excited state density for this state as the 1-particle RhoCI density.

 The electronic state is 1-A.
 Alpha  occ. eigenvalues --  -46.84429 -19.26812 -19.25761 -19.20361 -19.18875
 Alpha  occ. eigenvalues --  -19.18800 -14.41206 -14.39970 -14.39854 -14.39431
 Alpha  occ. eigenvalues --  -10.39148 -10.39029 -10.33934 -10.32373 -10.32128
 Alpha  occ. eigenvalues --  -10.31225 -10.30771 -10.30747 -10.30615 -10.29164
 Alpha  occ. eigenvalues --  -10.28983 -10.28908 -10.28836 -10.28554 -10.28467
 Alpha  occ. eigenvalues --  -10.28437 -10.28069 -10.28034 -10.28033 -10.28028
 Alpha  occ. eigenvalues --  -10.27978 -10.27957 -10.27940 -10.27909 -10.27795
 Alpha  occ. eigenvalues --  -10.27718 -10.27637 -10.27014 -10.27009 -10.26932
 Alpha  occ. eigenvalues --  -10.26827 -10.26807 -10.26670 -10.26583 -10.26544
 Alpha  occ. eigenvalues --  -10.26342 -10.26020 -10.25964 -10.25836 -10.25833
 Alpha  occ. eigenvalues --  -10.25460 -10.25422 -10.25379 -10.25071 -10.24870
 Alpha  occ. eigenvalues --  -10.24811 -10.24810 -10.24662 -10.24329 -10.24246
 Alpha  occ. eigenvalues --  -10.23911 -10.23694 -10.23198 -10.22897 -10.22475
 Alpha  occ. eigenvalues --   -3.13522  -1.88229  -1.87761  -1.87705  -1.19432
 Alpha  occ. eigenvalues --   -1.15694  -1.09887  -1.07019  -1.06337  -1.04458
 Alpha  occ. eigenvalues --   -1.03766  -1.02645  -1.01069  -0.92769  -0.92710
 Alpha  occ. eigenvalues --   -0.91986  -0.90572  -0.90291  -0.89525  -0.89400
 Alpha  occ. eigenvalues --   -0.88931  -0.88405  -0.87461  -0.86985  -0.86444
 Alpha  occ. eigenvalues --   -0.85062  -0.84481  -0.84251  -0.83346  -0.83021
 Alpha  occ. eigenvalues --   -0.82600  -0.81820  -0.80944  -0.79674  -0.78237
 Alpha  occ. eigenvalues --   -0.77619  -0.77233  -0.76485  -0.76205  -0.76016
 Alpha  occ. eigenvalues --   -0.75386  -0.75154  -0.74545  -0.73553  -0.72318
 Alpha  occ. eigenvalues --   -0.71328  -0.70428  -0.70075  -0.69554  -0.68813
 Alpha  occ. eigenvalues --   -0.68061  -0.66783  -0.64872  -0.64771  -0.64600
 Alpha  occ. eigenvalues --   -0.63828  -0.63694  -0.62945  -0.62627  -0.62353
 Alpha  occ. eigenvalues --   -0.61780  -0.60702  -0.60478  -0.60010  -0.59019
 Alpha  occ. eigenvalues --   -0.58463  -0.58342  -0.57980  -0.57755  -0.56801
 Alpha  occ. eigenvalues --   -0.56546  -0.55994  -0.55906  -0.55801  -0.55234
 Alpha  occ. eigenvalues --   -0.54632  -0.54527  -0.53713  -0.53644  -0.53362
 Alpha  occ. eigenvalues --   -0.53022  -0.52649  -0.52181  -0.51968  -0.51938
 Alpha  occ. eigenvalues --   -0.51562  -0.51350  -0.51237  -0.50997  -0.50629
 Alpha  occ. eigenvalues --   -0.50555  -0.50452  -0.50327  -0.50206  -0.49703
 Alpha  occ. eigenvalues --   -0.49588  -0.49126  -0.48902  -0.48630  -0.48479
 Alpha  occ. eigenvalues --   -0.48209  -0.47765  -0.47680  -0.47225  -0.46910
 Alpha  occ. eigenvalues --   -0.46808  -0.46372  -0.46353  -0.46076  -0.45840
 Alpha  occ. eigenvalues --   -0.45735  -0.45573  -0.45398  -0.45228  -0.44998
 Alpha  occ. eigenvalues --   -0.44754  -0.44731  -0.44614  -0.44338  -0.44207
 Alpha  occ. eigenvalues --   -0.44127  -0.43862  -0.43575  -0.43462  -0.43270
 Alpha  occ. eigenvalues --   -0.43150  -0.42989  -0.42902  -0.42587  -0.42379
 Alpha  occ. eigenvalues --   -0.42224  -0.41872  -0.41720  -0.41588  -0.41398
 Alpha  occ. eigenvalues --   -0.41307  -0.41037  -0.40207  -0.40154  -0.40115
 Alpha  occ. eigenvalues --   -0.40033  -0.39741  -0.39527  -0.39097  -0.38722
 Alpha  occ. eigenvalues --   -0.38682  -0.38534  -0.38149  -0.38083  -0.37828
 Alpha  occ. eigenvalues --   -0.37793  -0.37556  -0.37292  -0.36633  -0.36586
 Alpha  occ. eigenvalues --   -0.36288  -0.35914  -0.35701  -0.35653  -0.35463
 Alpha  occ. eigenvalues --   -0.34841  -0.34644  -0.34091  -0.33472  -0.33220
 Alpha  occ. eigenvalues --   -0.32893  -0.32377  -0.31808  -0.31026  -0.30731
 Alpha  occ. eigenvalues --   -0.29435  -0.28553  -0.28216  -0.27364  -0.23600
 Alpha  occ. eigenvalues --   -0.22050
 Alpha virt. eigenvalues --   -0.05754  -0.02472   0.01632   0.03143   0.04924
 Alpha virt. eigenvalues --    0.05594   0.06204   0.06364   0.06515   0.07258
 Alpha virt. eigenvalues --    0.08506   0.10308   0.10670   0.11485   0.11701

 Mulliken charges:
               1
     1  Mg   0.818744
     2  C    0.093190
     3  C   -0.210999
     4  C   -0.154064
     5  C   -0.173260
     6  N   -0.654986
     7  C    0.293372
     8  C   -0.176508
     9  C   -0.138494
    10  C    0.365601
    11  C   -0.283757
    12  C   -0.149996
    13  C   -0.270164
    14  C    0.612562
    15  O   -0.491086
    16  O   -0.503882
    17  N   -0.731272
    18  C    0.386410
    19  C   -0.020645
    20  C    0.086584
    21  C    0.298438
    22  C   -0.396189
    23  C   -0.123964
    24  C   -0.230010
    25  N   -0.637983
    26  C    0.298377
    27  C    0.027484
    28  C    0.030426
    29  C    0.232629
    30  C   -0.380479
    31  C   -0.244502
    32  C   -0.311075
    33  N   -0.723779
    34  C    0.259655
    35  C    0.053624
    36  C    0.006184
    37  C    0.316012
    38  C   -0.379168
    39  C    0.318523
    40  O   -0.473207
    41  C   -0.329608
    42  C    0.609425
    43  O   -0.539097
    44  O   -0.398859
    45  C   -0.085250
    46  C    0.000859
    47  C   -0.124959
    48  C    0.154794
    49  C   -0.361680
    50  C   -0.221542
    51  C   -0.172026
    52  C   -0.156493
    53  C   -0.079303
    54  C   -0.317943
    55  C   -0.145643
    56  C   -0.171600
    57  C   -0.173169
    58  C   -0.047651
    59  C   -0.283540
    60  C   -0.157061
    61  C   -0.194458
    62  C   -0.143262
    63  C   -0.069866
    64  C   -0.314252
    65  C   -0.294252
    66  H    0.089233
    67  H    0.055806
    68  H    0.090959
    69  H    0.121891
    70  H    0.101236
    71  H    0.095653
    72  H    0.100456
    73  H    0.103109
    74  H    0.109229
    75  H    0.115349
    76  H    0.128636
    77  H    0.126760
    78  H    0.121342
    79  H    0.132342
    80  H    0.109260
    81  H    0.090972
    82  H    0.108109
    83  H    0.105851
    84  H    0.116077
    85  H    0.122076
    86  H    0.111804
    87  H    0.116209
    88  H    0.090690
    89  H    0.107211
    90  H    0.122297
    91  H    0.113507
    92  H    0.075335
    93  H    0.144222
    94  H    0.145701
    95  H    0.169931
    96  H    0.102970
    97  H    0.155035
    98  H    0.137396
    99  H    0.145154
   100  H    0.145239
   101  H    0.085564
   102  H    0.113357
   103  H    0.090047
   104  H    0.114284
   105  H    0.111338
   106  H    0.113208
   107  H    0.083464
   108  H    0.051913
   109  H    0.097946
   110  H    0.095437
   111  H    0.083382
   112  H    0.113380
   113  H    0.094021
   114  H    0.090435
   115  H    0.095865
   116  H    0.053481
   117  H    0.104253
   118  H    0.084973
   119  H    0.094259
   120  H    0.040708
   121  H    0.098156
   122  H    0.081323
   123  H    0.114684
   124  H    0.052301
   125  H    0.055117
   126  H    0.097288
   127  H    0.100765
   128  H    0.092606
   129  H    0.105436
   130  H    0.089989
   131  H    0.071439
   132  H    0.114594
   133  H    0.094742
   134  H    0.098123
   135  H    0.096225
   136  H    0.096576
   137  H    0.080363
 Sum of Mulliken charges =   0.00000

 Dipole moment (field-independent basis, Debye):
    X=              1.8386    Y=              5.5050    Z=             -0.1380  Tot=              5.8055
 Quadrupole moment (field-independent basis, Debye-Ang):
   XX=           -339.4372   YY=           -385.7545   ZZ=           -403.7173
   XY=            -23.2534   XZ=             15.5504   YZ=             -3.3590

 Normal termination of Gaussian 09 at Mon Jul  1 04:25:58 2019.
