 Gaussian 09, Revision D.01,
 Gaussian 09:  ES64L-G09RevD.01 24-Apr-2013

 -------------------------------------
 # td=(NStates=1) CAM-B3LYP/6-31G(d,p)
 -------------------------------------

 --
 TD
 --
 Symbolic Z-matrix:
 Charge =  0 Multiplicity = 1

                         Standard orientation:
 ---------------------------------------------------------------------
 Center     Atomic      Atomic             Coordinates (Angstroms)
 Number     Number       Type             X           Y           Z
 ---------------------------------------------------------------------
      1         12           0       -7.191254    0.575203    0.028566
      2          6           0       -4.908702   -1.915079    0.513244
      3          6           0       -4.866407    2.881681    1.158099
      4          6           0       -9.452526    3.046790   -0.298917
      5          6           0       -9.624969   -1.772055   -0.897099
      6          7           0       -5.078856    0.402240    0.797464
      7          6           0       -4.328180   -0.743302    0.883055
      8          6           0       -2.944740   -0.381627    1.230889
      9          6           0       -3.019145    1.159942    1.719179
     10          6           0       -4.372168    1.527170    1.080939
     11          6           0       -2.939513    1.236654    3.249505
     12          6           0       -1.892752   -0.534910    0.101245
     13          6           0       -0.458520   -0.411430    0.546664
     14          6           0        0.519641   -0.684439   -0.604700
     15          8           0        0.261717   -1.027734   -1.704324
     16          8           0        1.820457   -0.527214   -0.254620
     17          7           0       -7.153563    2.643955    0.318269
     18          6           0       -6.124616    3.392255    0.813608
     19          6           0       -6.527120    4.822997    0.927848
     20          6           0       -7.892631    4.822471    0.563515
     21          6           0       -8.261034    3.497594    0.099382
     22          6           0       -5.595780    5.822919    1.337016
     23          6           0       -8.710263    5.992840    0.350936
     24          6           0       -8.359455    7.197008    0.089160
     25          7           0       -9.209612    0.605577   -0.484669
     26          6           0       -9.930881    1.727977   -0.504663
     27          6           0      -11.247182    1.387039   -1.030084
     28          6           0      -11.279150    0.084315   -1.286069
     29          6           0       -9.966290   -0.400531   -0.929915
     30          6           0      -12.372439    2.366314   -1.389089
     31          6           0      -12.405231   -0.861071   -1.749079
     32          6           0      -12.447219   -1.061986   -3.271453
     33          7           0       -7.279015   -1.395819   -0.112365
     34          6           0       -8.321099   -2.284954   -0.501213
     35          6           0       -7.856546   -3.609890   -0.514039
     36          6           0       -6.540413   -3.590694   -0.075827
     37          6           0       -6.245697   -2.181085    0.131691
     38          6           0       -8.732277   -5.002458   -0.789952
     39          6           0       -5.370479   -4.377184    0.130367
     40          8           0       -5.141270   -5.574462    0.087954
     41          6           0       -4.188870   -3.247542    0.592004
     42          6           0       -3.594791   -3.692160    1.919943
     43          8           0       -3.724987   -3.031653    2.963329
     44          8           0       -2.728030   -4.750324    1.786177
     45          6           0       -2.138953   -5.116689    3.043669
     46          6           0        2.797818   -0.559336   -1.308022
     47          6           0        4.053271   -0.260785   -0.570448
     48          6           0        5.094621    0.445502   -1.166408
     49          6           0        5.198169    0.927927   -2.535513
     50          6           0        6.419879    0.598300   -0.252140
     51          6           0        7.666865   -0.004590   -0.937690
     52          6           0        9.010126   -0.124419   -0.159852
     53          6           0       10.264820   -0.428245   -0.946338
     54          6           0       10.327625   -1.835072   -1.360116
     55          6           0       11.496462   -0.029420   -0.086644
     56          6           0       12.822795   -0.398017   -0.798351
     57          6           0       14.044987    0.000760    0.141325
     58          6           0       15.375603   -0.171543   -0.492555
     59          6           0       15.658402   -1.706005   -0.665401
     60          6           0       16.427105    0.431793    0.396804
     61          6           0       17.937369    0.448167   -0.057422
     62          6           0       18.946903    1.146331    0.828257
     63          6           0       20.377755    1.198651    0.284532
     64          6           0       20.606044    1.890187   -1.050530
     65          6           0       21.293658    1.840564    1.322713
     66          1           0       -4.245932    3.566784    1.674607
     67          1           0      -10.293317    3.796061   -0.498138
     68          1           0      -10.245307   -2.592301   -1.142400
     69          1           0       -2.637946   -0.909955    2.067585
     70          1           0       -2.292747    1.770606    1.076437
     71          1           0       -1.935040    0.809193    3.490845
     72          1           0       -3.157220    2.290374    3.665738
     73          1           0       -3.455615    0.500845    3.992042
     74          1           0       -2.090770   -1.601050   -0.329273
     75          1           0       -2.118972    0.159132   -0.822936
     76          1           0       -0.217537    0.598499    0.932135
     77          1           0       -0.254564   -1.105213    1.095505
     78          1           0       -4.999201    6.312922    0.688246
     79          1           0       -6.145726    6.798656    1.728523
     80          1           0       -4.912768    5.422075    2.124975
     81          1           0       -9.791390    5.764719    0.274227
     82          1           0       -8.988640    8.238930   -0.078471
     83          1           0       -7.389258    7.602066   -0.164320
     84          1           0      -12.159321    3.143398   -2.352656
     85          1           0      -13.240110    1.704310   -1.471348
     86          1           0      -12.479199    3.256649   -0.587271
     87          1           0      -12.372621   -1.803659   -1.131798
     88          1           0      -13.434523   -0.182948   -1.631808
     89          1           0      -13.162664   -1.850627   -3.534216
     90          1           0      -12.651750   -0.197198   -3.943840
     91          1           0      -11.405745   -1.508835   -3.628548
     92          1           0       -8.989591   -5.014674   -1.833610
     93          1           0       -8.069824   -5.933609   -0.840301
     94          1           0       -9.539953   -5.043447    0.009936
     95          1           0       -3.373321   -3.400235   -0.138476
     96          1           0       -1.367450   -4.262285    3.323945
     97          1           0       -2.950401   -5.444904    3.930127
     98          1           0       -1.664820   -6.085168    2.822270
     99          1           0        2.741008   -1.807476   -1.830225
    100          1           0        2.527521    0.208435   -2.024517
    101          1           0        4.043627   -0.687236    0.454209
    102          1           0        4.125180    0.958742   -2.925770
    103          1           0        5.575687    2.086871   -2.387419
    104          1           0        5.874498    0.344130   -3.164299
    105          1           0        6.726135    1.541296    0.015876
    106          1           0        6.372960    0.082017    0.728640
    107          1           0        7.522426   -1.044822   -1.192652
    108          1           0        7.861188    0.456740   -1.825125
    109          1           0        9.108139    0.937440    0.449483
    110          1           0        8.701175   -0.854804    0.579616
    111          1           0       10.241029    0.306437   -1.803933
    112          1           0        9.572791   -2.125472   -2.085341
    113          1           0       11.167292   -1.940988   -1.987583
    114          1           0       10.418464   -2.595047   -0.544929
    115          1           0       11.343731    0.947466    0.326717
    116          1           0       11.290444   -0.579052    0.999954
    117          1           0       12.566163   -1.444135   -1.160585
    118          1           0       13.190202    0.155171   -1.729883
    119          1           0       13.934857    0.981882    0.593360
    120          1           0       13.804675   -0.529001    1.117869
    121          1           0       15.526593    0.348909   -1.350796
    122          1           0       15.961664   -2.265305    0.408971
    123          1           0       15.043359   -2.112369   -1.305057
    124          1           0       16.513895   -1.874468   -1.151770
    125          1           0       16.322183    1.602187    0.647565
    126          1           0       16.302039    0.042369    1.325655
    127          1           0       18.090563   -0.603166   -0.495117
    128          1           0       17.927268    0.991054   -0.886115
    129          1           0       18.473946    2.246416    0.887062
    130          1           0       19.013126    0.529756    1.810418
    131          1           0       20.701867    0.251653    0.258364
    132          1           0       20.259958    2.943661   -1.313208
    133          1           0       21.643759    1.808380   -1.507025
    134          1           0       20.068641    1.346184   -1.834253
    135          1           0       21.156505    1.288360    2.236239
    136          1           0       22.304121    1.927324    1.034078
    137          1           0       20.910574    2.882563    1.505629
 ---------------------------------------------------------------------

 SCF Done:  E(RCAM-B3LYP) =  -2932.66228742     A.U. after   17 cycles

 Excitation energies and oscillator strengths:

 Excited State   1:      Singlet-A      2.1518 eV  576.18 nm  f=0.1910  <S**2>=0.000
     240 -> 242       -0.15246
     240 -> 243        0.27704
     241 -> 242        0.61883
 This state for optimization and/or second-order correction.
 Total Energy, E(TD-HF/TD-KS) =  -2932.58320874
 Copying the excited state density for this state as the 1-particle RhoCI density.

 The electronic state is 1-A.
 Alpha  occ. eigenvalues --  -46.85401 -19.26404 -19.25205 -19.20589 -19.20347
 Alpha  occ. eigenvalues --  -19.20039 -14.41490 -14.39791 -14.39710 -14.39610
 Alpha  occ. eigenvalues --  -10.39038 -10.38522 -10.34953 -10.33273 -10.32878
 Alpha  occ. eigenvalues --  -10.31626 -10.30498 -10.29997 -10.29806 -10.29470
 Alpha  occ. eigenvalues --  -10.29174 -10.29152 -10.29009 -10.28816 -10.28716
 Alpha  occ. eigenvalues --  -10.28696 -10.28627 -10.28433 -10.28382 -10.28081
 Alpha  occ. eigenvalues --  -10.28047 -10.27892 -10.27876 -10.27789 -10.27713
 Alpha  occ. eigenvalues --  -10.27629 -10.27248 -10.27176 -10.27038 -10.26869
 Alpha  occ. eigenvalues --  -10.26755 -10.26526 -10.26501 -10.26468 -10.26460
 Alpha  occ. eigenvalues --  -10.26443 -10.26151 -10.26035 -10.26008 -10.25946
 Alpha  occ. eigenvalues --  -10.25827 -10.25806 -10.25609 -10.25564 -10.25029
 Alpha  occ. eigenvalues --  -10.25026 -10.24965 -10.24959 -10.24918 -10.24293
 Alpha  occ. eigenvalues --  -10.24164 -10.23904 -10.23779 -10.23627 -10.23354
 Alpha  occ. eigenvalues --   -3.14253  -1.88970  -1.88488  -1.88421  -1.18757
 Alpha  occ. eigenvalues --   -1.16779  -1.10144  -1.09569  -1.07611  -1.05294
 Alpha  occ. eigenvalues --   -1.04127  -1.03220  -1.02325  -0.91493  -0.91178
 Alpha  occ. eigenvalues --   -0.90624  -0.90374  -0.89898  -0.89491  -0.89283
 Alpha  occ. eigenvalues --   -0.88959  -0.88313  -0.87105  -0.86803  -0.85971
 Alpha  occ. eigenvalues --   -0.84933  -0.84596  -0.83364  -0.83089  -0.82651
 Alpha  occ. eigenvalues --   -0.81483  -0.80773  -0.80351  -0.80263  -0.78301
 Alpha  occ. eigenvalues --   -0.77963  -0.76729  -0.76452  -0.76227  -0.75695
 Alpha  occ. eigenvalues --   -0.75394  -0.74625  -0.74411  -0.73152  -0.72511
 Alpha  occ. eigenvalues --   -0.71851  -0.70353  -0.69489  -0.69079  -0.68328
 Alpha  occ. eigenvalues --   -0.67189  -0.66921  -0.65490  -0.65098  -0.64598
 Alpha  occ. eigenvalues --   -0.64371  -0.64066  -0.62916  -0.62852  -0.62583
 Alpha  occ. eigenvalues --   -0.61292  -0.60749  -0.60201  -0.59566  -0.59127
 Alpha  occ. eigenvalues --   -0.58657  -0.58146  -0.57799  -0.57393  -0.56190
 Alpha  occ. eigenvalues --   -0.56000  -0.55701  -0.54734  -0.54699  -0.54342
 Alpha  occ. eigenvalues --   -0.54115  -0.53942  -0.53445  -0.53109  -0.53029
 Alpha  occ. eigenvalues --   -0.52882  -0.52597  -0.52250  -0.51887  -0.51856
 Alpha  occ. eigenvalues --   -0.51644  -0.51502  -0.50922  -0.50870  -0.50717
 Alpha  occ. eigenvalues --   -0.50344  -0.49939  -0.49884  -0.49741  -0.49409
 Alpha  occ. eigenvalues --   -0.49250  -0.49009  -0.48997  -0.48890  -0.48672
 Alpha  occ. eigenvalues --   -0.48584  -0.48110  -0.47939  -0.47407  -0.47082
 Alpha  occ. eigenvalues --   -0.46988  -0.46774  -0.46441  -0.46201  -0.45903
 Alpha  occ. eigenvalues --   -0.45721  -0.45445  -0.45274  -0.45077  -0.44943
 Alpha  occ. eigenvalues --   -0.44898  -0.44539  -0.44338  -0.43968  -0.43684
 Alpha  occ. eigenvalues --   -0.43529  -0.43502  -0.43369  -0.43114  -0.43077
 Alpha  occ. eigenvalues --   -0.42689  -0.42646  -0.42594  -0.42516  -0.42214
 Alpha  occ. eigenvalues --   -0.42080  -0.41872  -0.41661  -0.41634  -0.41428
 Alpha  occ. eigenvalues --   -0.41074  -0.40804  -0.40632  -0.40518  -0.40472
 Alpha  occ. eigenvalues --   -0.39853  -0.39827  -0.39573  -0.38986  -0.38886
 Alpha  occ. eigenvalues --   -0.38840  -0.38652  -0.38000  -0.37871  -0.37757
 Alpha  occ. eigenvalues --   -0.37388  -0.37175  -0.36999  -0.36956  -0.36650
 Alpha  occ. eigenvalues --   -0.36368  -0.36014  -0.35851  -0.35663  -0.35518
 Alpha  occ. eigenvalues --   -0.35470  -0.35385  -0.34785  -0.33701  -0.33265
 Alpha  occ. eigenvalues --   -0.33158  -0.32377  -0.32303  -0.31091  -0.30202
 Alpha  occ. eigenvalues --   -0.29108  -0.29030  -0.28708  -0.27767  -0.23085
 Alpha  occ. eigenvalues --   -0.21873
 Alpha virt. eigenvalues --   -0.06497  -0.03168   0.01225   0.04372   0.04994
 Alpha virt. eigenvalues --    0.05095   0.05775   0.07089   0.07165   0.08147
 Alpha virt. eigenvalues --    0.08568   0.10480   0.10845   0.11399   0.12358

 Mulliken charges:
               1
     1  Mg   0.835147
     2  C    0.063810
     3  C   -0.207242
     4  C   -0.198131
     5  C   -0.143777
     6  N   -0.620962
     7  C    0.350870
     8  C   -0.172954
     9  C   -0.133438
    10  C    0.316864
    11  C   -0.316749
    12  C   -0.190160
    13  C   -0.212038
    14  C    0.564462
    15  O   -0.444764
    16  O   -0.494504
    17  N   -0.728824
    18  C    0.345044
    19  C    0.059736
    20  C   -0.005523
    21  C    0.344433
    22  C   -0.401002
    23  C   -0.051638
    24  C   -0.258146
    25  N   -0.688087
    26  C    0.313824
    27  C   -0.011159
    28  C    0.070622
    29  C    0.272629
    30  C   -0.349108
    31  C   -0.231049
    32  C   -0.301161
    33  N   -0.741428
    34  C    0.221988
    35  C   -0.019020
    36  C    0.056995
    37  C    0.307652
    38  C   -0.365104
    39  C    0.328506
    40  O   -0.459344
    41  C   -0.355952
    42  C    0.631426
    43  O   -0.488651
    44  O   -0.447471
    45  C   -0.069570
    46  C    0.044167
    47  C   -0.116639
    48  C    0.095797
    49  C   -0.349026
    50  C   -0.218772
    51  C   -0.194790
    52  C   -0.179557
    53  C   -0.045286
    54  C   -0.321724
    55  C   -0.171837
    56  C   -0.179533
    57  C   -0.173003
    58  C   -0.060314
    59  C   -0.294031
    60  C   -0.180608
    61  C   -0.189889
    62  C   -0.160690
    63  C   -0.042739
    64  C   -0.331344
    65  C   -0.299105
    66  H    0.068931
    67  H    0.086760
    68  H    0.098939
    69  H    0.124159
    70  H    0.107249
    71  H    0.111012
    72  H    0.105295
    73  H    0.133572
    74  H    0.107501
    75  H    0.105011
    76  H    0.135044
    77  H    0.139486
    78  H    0.147601
    79  H    0.106886
    80  H    0.116972
    81  H    0.090747
    82  H    0.089134
    83  H    0.105340
    84  H    0.096315
    85  H    0.111730
    86  H    0.096339
    87  H    0.116911
    88  H    0.080568
    89  H    0.109105
    90  H    0.118701
    91  H    0.088243
    92  H    0.130012
    93  H    0.142691
    94  H    0.130637
    95  H    0.156140
    96  H    0.114395
    97  H    0.113432
    98  H    0.127935
    99  H    0.080883
   100  H    0.124043
   101  H    0.111608
   102  H    0.103517
   103  H    0.099166
   104  H    0.143218
   105  H    0.106450
   106  H    0.092217
   107  H    0.094706
   108  H    0.092126
   109  H    0.045871
   110  H    0.093901
   111  H    0.086235
   112  H    0.102298
   113  H    0.112275
   114  H    0.109513
   115  H    0.098742
   116  H    0.059478
   117  H    0.100181
   118  H    0.082754
   119  H    0.095525
   120  H    0.085885
   121  H    0.094034
   122  H    0.078216
   123  H    0.108032
   124  H    0.106042
   125  H    0.048738
   126  H    0.097435
   127  H    0.072804
   128  H    0.108495
   129  H    0.076953
   130  H    0.083068
   131  H    0.105319
   132  H    0.098836
   133  H    0.095855
   134  H    0.098571
   135  H    0.093031
   136  H    0.102774
   137  H    0.090278
 Sum of Mulliken charges =   0.00000

 Dipole moment (field-independent basis, Debye):
    X=              1.1563    Y=              4.5814    Z=             -0.8773  Tot=              4.8058
 Quadrupole moment (field-independent basis, Debye-Ang):
   XX=           -348.5647   YY=           -391.3630   ZZ=           -396.3005
   XY=            -22.9562   XZ=              1.4935   YZ=             -3.2266

 Normal termination of Gaussian 09 at Mon Jul  1 07:49:28 2019.
