 Gaussian 09, Revision D.01,
 Gaussian 09:  ES64L-G09RevD.01 24-Apr-2013

 -------------------------------------
 # td=(NStates=1) CAM-B3LYP/6-31G(d,p)
 -------------------------------------

 --
 TD
 --
 Symbolic Z-matrix:
 Charge =  0 Multiplicity = 1

                         Standard orientation:
 ---------------------------------------------------------------------
 Center     Atomic      Atomic             Coordinates (Angstroms)
 Number     Number       Type             X           Y           Z
 ---------------------------------------------------------------------
      1         12           0       -7.127986    0.594733    0.129674
      2          6           0       -4.767094   -1.928539    0.502062
      3          6           0       -4.771118    2.896148    1.022505
      4          6           0       -9.367973    3.072124   -0.301605
      5          6           0       -9.545838   -1.897712   -0.801140
      6          7           0       -5.165048    0.433306    0.848126
      7          6           0       -4.381954   -0.651549    0.900192
      8          6           0       -2.948902   -0.278779    1.281611
      9          6           0       -2.903459    1.212460    1.630227
     10          6           0       -4.414175    1.518589    1.233046
     11          6           0       -2.822607    1.342188    3.180991
     12          6           0       -1.940484   -0.645751    0.099182
     13          6           0       -0.503642   -0.420311    0.554160
     14          6           0        0.506081   -0.514020   -0.664832
     15          8           0        0.184677   -0.888469   -1.713494
     16          8           0        1.678110   -0.267066   -0.252081
     17          7           0       -7.106010    2.599664    0.343031
     18          6           0       -5.975019    3.388307    0.700546
     19          6           0       -6.452429    4.851867    0.827944
     20          6           0       -7.607141    4.803721    0.335981
     21          6           0       -8.144774    3.431007    0.081668
     22          6           0       -5.597099    5.949498    1.330962
     23          6           0       -8.520005    6.001278    0.408929
     24          6           0       -8.248623    7.241549    0.027620
     25          7           0       -9.129939    0.556437   -0.529610
     26          6           0       -9.836316    1.738557   -0.639391
     27          6           0      -11.215966    1.401552   -1.031708
     28          6           0      -11.295989    0.086983   -1.056133
     29          6           0       -9.948533   -0.529262   -0.742756
     30          6           0      -12.335414    2.444202   -1.452958
     31          6           0      -12.493561   -0.781994   -1.658320
     32          6           0      -12.431173   -1.199109   -3.146080
     33          7           0       -7.180647   -1.470226   -0.040516
     34          6           0       -8.291361   -2.283695   -0.480284
     35          6           0       -7.697083   -3.728782   -0.458716
     36          6           0       -6.408067   -3.630234   -0.055610
     37          6           0       -6.160533   -2.267801    0.205884
     38          6           0       -8.406641   -4.905383   -0.924212
     39          6           0       -5.238123   -4.473248    0.221978
     40          8           0       -5.107546   -5.614712    0.074322
     41          6           0       -4.121610   -3.342359    0.568143
     42          6           0       -3.426279   -3.637025    1.857201
     43          8           0       -3.653014   -3.208759    3.013293
     44          8           0       -2.579042   -4.739477    1.585261
     45          6           0       -1.955836   -5.298533    2.795585
     46          6           0        2.738732   -0.434725   -1.242879
     47          6           0        4.074883   -0.238621   -0.541138
     48          6           0        5.099075    0.585331   -1.025195
     49          6           0        5.120184    1.287805   -2.235563
     50          6           0        6.391427    0.571325   -0.185930
     51          6           0        7.531720    0.119691   -1.068340
     52          6           0        8.939737   -0.108456   -0.208134
     53          6           0       10.154666   -0.560994   -0.917789
     54          6           0       10.024717   -1.973255   -1.363123
     55          6           0       11.428829   -0.198232   -0.069925
     56          6           0       12.746879   -0.460811   -0.718642
     57          6           0       13.907578   -0.185246    0.219746
     58          6           0       15.338119   -0.334522   -0.551682
     59          6           0       15.665393   -1.819617   -0.902596
     60          6           0       16.371428    0.245319    0.389872
     61          6           0       17.768888    0.464600   -0.110313
     62          6           0       18.808372    1.074867    0.863628
     63          6           0       20.210149    1.286967    0.267125
     64          6           0       20.189082    2.201705   -1.024887
     65          6           0       21.058949    1.969482    1.352138
     66          1           0       -4.004347    3.732519    1.173105
     67          1           0      -10.276133    3.753421   -0.392025
     68          1           0      -10.192392   -2.434619   -1.119409
     69          1           0       -2.720030   -0.777826    2.231712
     70          1           0       -2.118236    1.825280    1.129696
     71          1           0       -1.831658    1.220320    3.542211
     72          1           0       -3.136008    2.310794    3.614156
     73          1           0       -3.665562    0.741546    3.776156
     74          1           0       -2.196191   -1.626552   -0.282149
     75          1           0       -2.385812    0.080612   -0.629482
     76          1           0       -0.333811    0.537447    0.957352
     77          1           0       -0.284827   -1.303683    1.154782
     78          1           0       -5.280789    6.668951    0.476292
     79          1           0       -6.277492    6.629438    1.937754
     80          1           0       -4.713170    5.634414    1.894268
     81          1           0       -9.687014    5.816769    0.503392
     82          1           0       -9.071221    8.124161   -0.069699
     83          1           0       -7.296978    7.679001   -0.102999
     84          1           0      -12.076570    2.664586   -2.585266
     85          1           0      -13.314714    1.832236   -1.356651
     86          1           0      -12.310041    3.308565   -0.846135
     87          1           0      -12.678090   -1.716882   -1.010380
     88          1           0      -13.399141   -0.134369   -1.537061
     89          1           0      -13.329813   -1.958827   -3.195268
     90          1           0      -12.497506   -0.294878   -3.669332
     91          1           0      -11.492703   -1.895432   -3.238558
     92          1           0       -8.582108   -5.058222   -1.964364
     93          1           0       -7.853212   -5.756673   -0.906719
     94          1           0       -9.433452   -5.151632   -0.313162
     95          1           0       -3.457587   -3.656203   -0.156304
     96          1           0       -1.471292   -4.584017    3.394000
     97          1           0       -2.683121   -5.890045    3.535906
     98          1           0       -1.335469   -5.996251    2.391279
     99          1           0        2.724827   -1.548441   -1.523132
    100          1           0        2.409911    0.087389   -2.172753
    101          1           0        4.173571   -0.891994    0.241956
    102          1           0        4.280132    1.225074   -2.889158
    103          1           0        5.412362    2.272740   -2.004405
    104          1           0        5.891261    0.858952   -2.989242
    105          1           0        6.538901    1.799874   -0.336615
    106          1           0        6.125031    0.073756    0.763764
    107          1           0        7.328310   -0.888497   -1.727993
    108          1           0        7.701976    0.676262   -1.858715
    109          1           0        9.012604    0.937058    0.175959
    110          1           0        8.656332   -0.882218    0.563503
    111          1           0       10.241822    0.137444   -1.798048
    112          1           0        9.196671   -2.222652   -2.161650
    113          1           0       10.975253   -2.378299   -1.896269
    114          1           0        9.797768   -2.688828   -0.650380
    115          1           0       11.454003    0.880295    0.270196
    116          1           0       11.268244   -0.806768    0.720991
    117          1           0       12.796534   -1.534091   -1.145741
    118          1           0       12.634982    0.143478   -1.665530
    119          1           0       13.802555    0.807236    0.616369
    120          1           0       13.814279   -0.790154    1.178714
    121          1           0       15.091362    0.226184   -1.546901
    122          1           0       15.964081   -2.312054    0.081447
    123          1           0       14.903959   -2.308847   -1.385268
    124          1           0       16.546376   -1.836614   -1.505217
    125          1           0       15.994171    1.348687    0.857499
    126          1           0       16.379103   -0.290264    1.364241
    127          1           0       18.253185   -0.491961   -0.628572
    128          1           0       17.431555    1.187348   -1.061494
    129          1           0       18.557489    1.978199    1.542127
    130          1           0       18.828645    0.397230    1.695138
    131          1           0       20.511315    0.130112   -0.197302
    132          1           0       19.759491    3.218014   -0.717500
    133          1           0       21.220351    2.363282   -1.174316
    134          1           0       19.800750    1.667015   -1.861096
    135          1           0       21.212350    1.136434    2.187722
    136          1           0       22.100783    2.121402    1.078452
    137          1           0       20.615650    2.899718    1.986128
 ---------------------------------------------------------------------

 SCF Done:  E(RCAM-B3LYP) =  -2932.64450500     A.U. after   18 cycles

 Excitation energies and oscillator strengths:

 Excited State   1:      Singlet-A      2.0877 eV  593.88 nm  f=0.1985  <S**2>=0.000
     240 -> 243        0.26887
     241 -> 242        0.64780
 This state for optimization and/or second-order correction.
 Total Energy, E(TD-HF/TD-KS) =  -2932.56778319
 Copying the excited state density for this state as the 1-particle RhoCI density.

 The electronic state is 1-A.
 Alpha  occ. eigenvalues --  -46.84244 -19.26414 -19.25854 -19.22055 -19.21170
 Alpha  occ. eigenvalues --  -19.19674 -14.42555 -14.39492 -14.39477 -14.38934
 Alpha  occ. eigenvalues --  -10.39394 -10.37456 -10.35947 -10.32696 -10.32514
 Alpha  occ. eigenvalues --  -10.30790 -10.30377 -10.30337 -10.29184 -10.29052
 Alpha  occ. eigenvalues --  -10.28717 -10.28667 -10.28635 -10.28449 -10.28372
 Alpha  occ. eigenvalues --  -10.28207 -10.28205 -10.28091 -10.28071 -10.27743
 Alpha  occ. eigenvalues --  -10.27579 -10.27315 -10.27281 -10.27279 -10.27220
 Alpha  occ. eigenvalues --  -10.26731 -10.26715 -10.26627 -10.26621 -10.26603
 Alpha  occ. eigenvalues --  -10.26533 -10.26464 -10.26419 -10.26346 -10.26308
 Alpha  occ. eigenvalues --  -10.26275 -10.26255 -10.26234 -10.26206 -10.26160
 Alpha  occ. eigenvalues --  -10.26095 -10.26073 -10.25993 -10.25726 -10.25473
 Alpha  occ. eigenvalues --  -10.25453 -10.25426 -10.25393 -10.25275 -10.25170
 Alpha  occ. eigenvalues --  -10.25053 -10.24526 -10.24324 -10.24175 -10.24058
 Alpha  occ. eigenvalues --   -3.13224  -1.87942  -1.87463  -1.87389  -1.21193
 Alpha  occ. eigenvalues --   -1.15703  -1.14632  -1.11207  -1.06918  -1.04751
 Alpha  occ. eigenvalues --   -1.02751  -1.02544  -1.00816  -0.92325  -0.91502
 Alpha  occ. eigenvalues --   -0.90757  -0.90083  -0.89562  -0.89329  -0.88637
 Alpha  occ. eigenvalues --   -0.87655  -0.87450  -0.87151  -0.86352  -0.85998
 Alpha  occ. eigenvalues --   -0.84902  -0.84252  -0.83082  -0.82919  -0.82005
 Alpha  occ. eigenvalues --   -0.81669  -0.81144  -0.80648  -0.80575  -0.78161
 Alpha  occ. eigenvalues --   -0.77870  -0.76547  -0.76254  -0.75942  -0.75770
 Alpha  occ. eigenvalues --   -0.75460  -0.74598  -0.74458  -0.73479  -0.71898
 Alpha  occ. eigenvalues --   -0.71520  -0.70130  -0.68550  -0.67998  -0.67478
 Alpha  occ. eigenvalues --   -0.66846  -0.65945  -0.64877  -0.64606  -0.64380
 Alpha  occ. eigenvalues --   -0.64112  -0.63409  -0.63362  -0.61978  -0.61958
 Alpha  occ. eigenvalues --   -0.61176  -0.60981  -0.60157  -0.59803  -0.59172
 Alpha  occ. eigenvalues --   -0.58704  -0.57999  -0.57729  -0.57184  -0.56949
 Alpha  occ. eigenvalues --   -0.56451  -0.55851  -0.55171  -0.54796  -0.54510
 Alpha  occ. eigenvalues --   -0.54195  -0.53968  -0.53553  -0.53268  -0.53081
 Alpha  occ. eigenvalues --   -0.52539  -0.52528  -0.52261  -0.51640  -0.51474
 Alpha  occ. eigenvalues --   -0.51111  -0.51025  -0.50940  -0.50631  -0.50506
 Alpha  occ. eigenvalues --   -0.50337  -0.50225  -0.49952  -0.49721  -0.49651
 Alpha  occ. eigenvalues --   -0.49163  -0.49014  -0.48839  -0.48646  -0.48516
 Alpha  occ. eigenvalues --   -0.48174  -0.47794  -0.47561  -0.47508  -0.47405
 Alpha  occ. eigenvalues --   -0.47195  -0.47065  -0.46342  -0.46213  -0.45952
 Alpha  occ. eigenvalues --   -0.45697  -0.45535  -0.45443  -0.45059  -0.44974
 Alpha  occ. eigenvalues --   -0.44835  -0.44737  -0.44711  -0.44468  -0.44187
 Alpha  occ. eigenvalues --   -0.44106  -0.43780  -0.43599  -0.43371  -0.43273
 Alpha  occ. eigenvalues --   -0.43196  -0.42662  -0.42602  -0.42507  -0.42387
 Alpha  occ. eigenvalues --   -0.42245  -0.41956  -0.41913  -0.41686  -0.41514
 Alpha  occ. eigenvalues --   -0.41473  -0.40928  -0.40621  -0.40452  -0.40424
 Alpha  occ. eigenvalues --   -0.39924  -0.39564  -0.39461  -0.39231  -0.38757
 Alpha  occ. eigenvalues --   -0.38476  -0.38367  -0.38084  -0.37809  -0.37535
 Alpha  occ. eigenvalues --   -0.37192  -0.36933  -0.36813  -0.36703  -0.36416
 Alpha  occ. eigenvalues --   -0.36382  -0.36238  -0.35477  -0.35266  -0.35166
 Alpha  occ. eigenvalues --   -0.34973  -0.34623  -0.34189  -0.33491  -0.32947
 Alpha  occ. eigenvalues --   -0.32810  -0.32636  -0.32359  -0.30858  -0.30174
 Alpha  occ. eigenvalues --   -0.29751  -0.28871  -0.28719  -0.28155  -0.23599
 Alpha  occ. eigenvalues --   -0.20016
 Alpha virt. eigenvalues --   -0.04908  -0.03364   0.02335   0.04481   0.04845
 Alpha virt. eigenvalues --    0.05233   0.06066   0.06887   0.07710   0.08855
 Alpha virt. eigenvalues --    0.09971   0.10874   0.11053   0.11139   0.11595

 Mulliken charges:
               1
     1  Mg   0.821445
     2  C    0.037168
     3  C   -0.232777
     4  C   -0.181337
     5  C   -0.050113
     6  N   -0.608831
     7  C    0.310596
     8  C   -0.173341
     9  C   -0.126618
    10  C    0.301101
    11  C   -0.327941
    12  C   -0.166285
    13  C   -0.265080
    14  C    0.566588
    15  O   -0.451729
    16  O   -0.430226
    17  N   -0.736082
    18  C    0.302801
    19  C    0.098243
    20  C   -0.026305
    21  C    0.377361
    22  C   -0.380597
    23  C   -0.091980
    24  C   -0.237194
    25  N   -0.684858
    26  C    0.267600
    27  C    0.005014
    28  C   -0.010991
    29  C    0.237029
    30  C   -0.347344
    31  C   -0.244320
    32  C   -0.280349
    33  N   -0.703821
    34  C    0.255014
    35  C    0.006618
    36  C    0.014829
    37  C    0.291591
    38  C   -0.399352
    39  C    0.386804
    40  O   -0.392573
    41  C   -0.318011
    42  C    0.625294
    43  O   -0.490998
    44  O   -0.484941
    45  C   -0.073578
    46  C   -0.018098
    47  C   -0.144193
    48  C    0.141290
    49  C   -0.374545
    50  C   -0.205714
    51  C   -0.176038
    52  C   -0.167030
    53  C   -0.059001
    54  C   -0.317015
    55  C   -0.166745
    56  C   -0.178628
    57  C   -0.174782
    58  C   -0.056556
    59  C   -0.306971
    60  C   -0.163112
    61  C   -0.157420
    62  C   -0.158345
    63  C   -0.044279
    64  C   -0.293243
    65  C   -0.319703
    66  H    0.084271
    67  H    0.087823
    68  H    0.034934
    69  H    0.133363
    70  H    0.112569
    71  H    0.118888
    72  H    0.104763
    73  H    0.117155
    74  H    0.120661
    75  H    0.105140
    76  H    0.122177
    77  H    0.138904
    78  H    0.121285
    79  H    0.129471
    80  H    0.118958
    81  H    0.085901
    82  H    0.088264
    83  H    0.101187
    84  H    0.117702
    85  H    0.109524
    86  H    0.122900
    87  H    0.088788
    88  H    0.088956
    89  H    0.096024
    90  H    0.123779
    91  H    0.099219
    92  H    0.132136
    93  H    0.145562
    94  H    0.102287
    95  H    0.167912
    96  H    0.135284
    97  H    0.108363
    98  H    0.129157
    99  H    0.119366
   100  H    0.132463
   101  H    0.096253
   102  H    0.120857
   103  H    0.122832
   104  H    0.119463
   105  H    0.074765
   106  H    0.114623
   107  H    0.055637
   108  H    0.113808
   109  H    0.090556
   110  H    0.083870
   111  H    0.073125
   112  H    0.093813
   113  H    0.090360
   114  H    0.115051
   115  H    0.085258
   116  H    0.097691
   117  H    0.081105
   118  H    0.083357
   119  H    0.094631
   120  H    0.085437
   121  H    0.079350
   122  H    0.093750
   123  H    0.111801
   124  H    0.108615
   125  H    0.057164
   126  H    0.087110
   127  H    0.076303
   128  H    0.066865
   129  H    0.077517
   130  H    0.098478
   131  H    0.053342
   132  H    0.094108
   133  H    0.104120
   134  H    0.110320
   135  H    0.085794
   136  H    0.109288
   137  H    0.101055
 Sum of Mulliken charges =   0.00000

 Dipole moment (field-independent basis, Debye):
    X=              4.4473    Y=              3.9732    Z=             -0.0338  Tot=              5.9638
 Quadrupole moment (field-independent basis, Debye-Ang):
   XX=           -363.2499   YY=           -385.6736   ZZ=           -399.2377
   XY=            -17.8585   XZ=             11.7634   YZ=              2.1229

 Normal termination of Gaussian 09 at Mon Jul  1 02:30:58 2019.
