 Gaussian 09, Revision D.01,
 Gaussian 09:  ES64L-G09RevD.01 24-Apr-2013

 -------------------------------------
 # td=(NStates=1) CAM-B3LYP/6-31G(d,p)
 -------------------------------------

 --
 TD
 --
 Symbolic Z-matrix:
 Charge =  0 Multiplicity = 1

                         Standard orientation:
 ---------------------------------------------------------------------
 Center     Atomic      Atomic             Coordinates (Angstroms)
 Number     Number       Type             X           Y           Z
 ---------------------------------------------------------------------
      1         12           0       -7.052549    0.605985    0.028645
      2          6           0       -4.861796   -1.991199    0.409858
      3          6           0       -4.772762    2.795794    1.121876
      4          6           0       -9.459147    3.104684   -0.244731
      5          6           0       -9.519199   -1.737212   -1.017787
      6          7           0       -5.134809    0.349987    0.606656
      7          6           0       -4.378051   -0.717722    0.742645
      8          6           0       -2.894112   -0.459037    1.118544
      9          6           0       -2.978380    1.073329    1.636340
     10          6           0       -4.268161    1.526281    1.034820
     11          6           0       -2.758418    1.332844    3.038706
     12          6           0       -1.906172   -0.787376    0.016071
     13          6           0       -0.518796   -0.675232    0.497478
     14          6           0        0.422389   -0.670259   -0.661482
     15          8           0        0.229721   -0.901376   -1.846360
     16          8           0        1.736214   -0.425111   -0.191246
     17          7           0       -7.067421    2.522327    0.384039
     18          6           0       -6.038556    3.294367    0.788215
     19          6           0       -6.356909    4.744206    0.902345
     20          6           0       -7.697720    4.748636    0.553228
     21          6           0       -8.192456    3.362634    0.239878
     22          6           0       -5.501136    5.793500    1.429036
     23          6           0       -8.617998    5.971322    0.385365
     24          6           0       -8.150016    7.221879    0.286595
     25          7           0       -9.128227    0.697023   -0.586189
     26          6           0       -9.890833    1.787406   -0.577791
     27          6           0      -11.238638    1.478241   -0.927454
     28          6           0      -11.256175    0.176438   -1.183330
     29          6           0       -9.871546   -0.371257   -1.015251
     30          6           0      -12.367549    2.498784   -1.076751
     31          6           0      -12.440879   -0.614941   -1.721971
     32          6           0      -12.507082   -0.776699   -3.323466
     33          7           0       -7.167291   -1.305955   -0.366486
     34          6           0       -8.315310   -2.239510   -0.670242
     35          6           0       -7.863533   -3.663196   -0.468214
     36          6           0       -6.512779   -3.612926   -0.114223
     37          6           0       -6.125453   -2.168014   -0.050158
     38          6           0       -8.646445   -4.751821   -0.859370
     39          6           0       -5.487735   -4.431439    0.314292
     40          8           0       -5.250314   -5.618222    0.286063
     41          6           0       -4.298713   -3.379801    0.602342
     42          6           0       -3.579383   -3.745550    1.940567
     43          8           0       -3.744534   -3.166159    2.956883
     44          8           0       -2.780607   -4.796159    1.732174
     45          6           0       -2.168222   -5.242381    2.990207
     46          6           0        2.782728   -0.630401   -1.219036
     47          6           0        4.094980   -0.397374   -0.556975
     48          6           0        5.197701    0.350536   -0.918848
     49          6           0        5.129348    1.204068   -2.134617
     50          6           0        6.431096    0.374610   -0.144974
     51          6           0        7.697072   -0.127484   -0.910309
     52          6           0        8.892658   -0.148736    0.043070
     53          6           0       10.188943   -0.461865   -0.861542
     54          6           0       10.172296   -1.794394   -1.614078
     55          6           0       11.398573   -0.122277    0.042419
     56          6           0       12.751842   -0.338625   -0.629192
     57          6           0       13.957417   -0.027493    0.244949
     58          6           0       15.305593   -0.070773   -0.470722
     59          6           0       15.518480   -1.562221   -1.056832
     60          6           0       16.428715    0.363365    0.391408
     61          6           0       17.835520    0.462959   -0.270438
     62          6           0       18.843335    1.061006    0.680347
     63          6           0       20.418910    1.193768    0.191096
     64          6           0       20.370856    2.103690   -0.977247
     65          6           0       21.226835    1.725420    1.367944
     66          1           0       -3.988241    3.430596    1.502346
     67          1           0      -10.195467    3.769514   -0.105779
     68          1           0      -10.353185   -2.425783   -1.458460
     69          1           0       -2.486301   -1.112910    2.085608
     70          1           0       -2.077982    1.514455    1.089707
     71          1           0       -1.825541    0.898538    3.418505
     72          1           0       -2.580623    2.410041    3.369603
     73          1           0       -3.603647    0.824583    3.779614
     74          1           0       -2.221570   -1.820959   -0.500808
     75          1           0       -1.960383    0.184071   -0.712117
     76          1           0       -0.478971    0.244900    1.208829
     77          1           0       -0.316743   -1.614973    1.193154
     78          1           0       -4.825050    6.267893    0.752894
     79          1           0       -6.214392    6.699027    1.612226
     80          1           0       -4.954928    5.513048    2.424968
     81          1           0       -9.613391    5.839776    0.241526
     82          1           0       -9.058520    7.817125    0.037753
     83          1           0       -7.046566    7.599701    0.346058
     84          1           0      -12.041475    3.221601   -2.158580
     85          1           0      -13.352753    2.000783   -1.324028
     86          1           0      -12.316328    3.036496   -0.164027
     87          1           0      -12.574102   -1.575549   -1.290535
     88          1           0      -13.338629   -0.017498   -1.602907
     89          1           0      -13.433249   -1.185882   -3.479558
     90          1           0      -12.240108    0.246746   -3.799072
     91          1           0      -11.672157   -1.468423   -3.756397
     92          1           0       -9.047556   -4.519719   -1.788396
     93          1           0       -8.114896   -5.725502   -0.793805
     94          1           0       -9.605774   -4.790929   -0.003205
     95          1           0       -3.656519   -3.464450   -0.307606
     96          1           0       -1.500378   -4.546174    3.314914
     97          1           0       -3.144248   -5.342790    3.689081
     98          1           0       -1.450142   -6.117684    2.702700
     99          1           0        2.639303   -1.605949   -1.594914
    100          1           0        2.619625    0.144756   -2.032004
    101          1           0        4.114480   -0.990010    0.387566
    102          1           0        4.128494    1.224382   -2.670265
    103          1           0        5.527584    2.294722   -1.929464
    104          1           0        5.884933    0.963758   -2.779916
    105          1           0        6.683355    1.525409    0.364001
    106          1           0        6.324938   -0.331008    0.826801
    107          1           0        7.445405   -1.227386   -1.144860
    108          1           0        8.034042    0.431681   -1.707803
    109          1           0        9.159412    0.808925    0.743061
    110          1           0        8.720952   -1.121803    0.673110
    111          1           0       10.022202    0.375002   -1.763528
    112          1           0        9.187810   -1.781550   -2.072439
    113          1           0       10.919487   -1.789801   -2.269877
    114          1           0       10.271283   -2.615109   -0.792767
    115          1           0       11.214103    0.896495    0.354082
    116          1           0       11.368985   -0.782060    1.037156
    117          1           0       12.792410   -1.390979   -0.954540
    118          1           0       13.064235    0.282681   -1.673513
    119          1           0       13.901755    1.063531    0.573232
    120          1           0       13.917848   -0.544828    1.309142
    121          1           0       15.343804    0.813275   -1.304054
    122          1           0       15.838137   -2.024189   -0.160296
    123          1           0       14.693357   -2.037153   -1.469304
    124          1           0       16.496613   -1.672992   -1.459493
    125          1           0       16.237111    1.413026    0.693121
    126          1           0       16.610563   -0.453519    1.390042
    127          1           0       18.161162   -0.429315   -0.640592
    128          1           0       17.793105    1.112739   -1.211712
    129          1           0       18.417162    2.083211    0.959832
    130          1           0       18.920242    0.402838    1.689835
    131          1           0       20.587269    0.247357   -0.147102
    132          1           0       20.096350    3.173141   -0.610813
    133          1           0       21.323369    2.152494   -1.493002
    134          1           0       19.582408    1.854205   -1.721524
    135          1           0       20.919930    0.981588    2.141874
    136          1           0       22.310896    1.937965    1.164873
    137          1           0       20.855294    2.770227    1.666192
 ---------------------------------------------------------------------

 SCF Done:  E(RCAM-B3LYP) =  -2932.66428832     A.U. after   18 cycles

 Excitation energies and oscillator strengths:

 Excited State   1:      Singlet-A      1.9836 eV  625.04 nm  f=0.2733  <S**2>=0.000
     240 -> 243       -0.22728
     241 -> 242        0.66142
 This state for optimization and/or second-order correction.
 Total Energy, E(TD-HF/TD-KS) =  -2932.59139187
 Copying the excited state density for this state as the 1-particle RhoCI density.

 The electronic state is 1-A.
 Alpha  occ. eigenvalues --  -46.82702 -19.26018 -19.24939 -19.22041 -19.20879
 Alpha  occ. eigenvalues --  -19.19967 -14.41868 -14.40373 -14.39432 -14.38866
 Alpha  occ. eigenvalues --  -10.39924 -10.38687 -10.34243 -10.32090 -10.31359
 Alpha  occ. eigenvalues --  -10.31315 -10.31247 -10.30517 -10.29764 -10.29672
 Alpha  occ. eigenvalues --  -10.29646 -10.29574 -10.29272 -10.29200 -10.28851
 Alpha  occ. eigenvalues --  -10.28782 -10.28607 -10.28443 -10.28231 -10.27947
 Alpha  occ. eigenvalues --  -10.27726 -10.27721 -10.27577 -10.27502 -10.27481
 Alpha  occ. eigenvalues --  -10.27364 -10.27332 -10.27284 -10.27260 -10.27243
 Alpha  occ. eigenvalues --  -10.27125 -10.27002 -10.26963 -10.26962 -10.26961
 Alpha  occ. eigenvalues --  -10.26604 -10.26344 -10.26294 -10.26212 -10.26171
 Alpha  occ. eigenvalues --  -10.26058 -10.25930 -10.25898 -10.25705 -10.25687
 Alpha  occ. eigenvalues --  -10.25575 -10.25544 -10.25426 -10.25106 -10.24881
 Alpha  occ. eigenvalues --  -10.24863 -10.24581 -10.24546 -10.24328 -10.23483
 Alpha  occ. eigenvalues --   -3.12146  -1.86814  -1.86401  -1.86362  -1.18671
 Alpha  occ. eigenvalues --   -1.16032  -1.10967  -1.10146  -1.07949  -1.03647
 Alpha  occ. eigenvalues --   -1.02848  -1.02372  -0.99910  -0.91961  -0.91376
 Alpha  occ. eigenvalues --   -0.91065  -0.90441  -0.89431  -0.89206  -0.88957
 Alpha  occ. eigenvalues --   -0.88740  -0.88224  -0.88061  -0.87482  -0.86051
 Alpha  occ. eigenvalues --   -0.85123  -0.84241  -0.83541  -0.83200  -0.82253
 Alpha  occ. eigenvalues --   -0.81583  -0.80978  -0.80488  -0.80180  -0.78637
 Alpha  occ. eigenvalues --   -0.77895  -0.76386  -0.76199  -0.75919  -0.75578
 Alpha  occ. eigenvalues --   -0.75533  -0.74549  -0.74519  -0.72821  -0.71752
 Alpha  occ. eigenvalues --   -0.71435  -0.69717  -0.69117  -0.68334  -0.67829
 Alpha  occ. eigenvalues --   -0.66279  -0.65965  -0.65410  -0.64056  -0.63648
 Alpha  occ. eigenvalues --   -0.63497  -0.63232  -0.61915  -0.61734  -0.61431
 Alpha  occ. eigenvalues --   -0.60794  -0.60493  -0.59779  -0.59643  -0.58933
 Alpha  occ. eigenvalues --   -0.58553  -0.57926  -0.57555  -0.56647  -0.56465
 Alpha  occ. eigenvalues --   -0.56034  -0.55771  -0.55014  -0.54774  -0.54684
 Alpha  occ. eigenvalues --   -0.54452  -0.54237  -0.53718  -0.53300  -0.53201
 Alpha  occ. eigenvalues --   -0.52969  -0.52557  -0.52378  -0.51792  -0.51547
 Alpha  occ. eigenvalues --   -0.51251  -0.51139  -0.50920  -0.50707  -0.50470
 Alpha  occ. eigenvalues --   -0.50325  -0.50127  -0.49928  -0.49789  -0.49624
 Alpha  occ. eigenvalues --   -0.49423  -0.49092  -0.48696  -0.48534  -0.48459
 Alpha  occ. eigenvalues --   -0.48228  -0.48057  -0.47914  -0.47790  -0.47305
 Alpha  occ. eigenvalues --   -0.47075  -0.46884  -0.46853  -0.46428  -0.45985
 Alpha  occ. eigenvalues --   -0.45896  -0.45596  -0.45450  -0.45349  -0.45238
 Alpha  occ. eigenvalues --   -0.45177  -0.44675  -0.44525  -0.44398  -0.44077
 Alpha  occ. eigenvalues --   -0.44023  -0.43745  -0.43590  -0.43403  -0.42964
 Alpha  occ. eigenvalues --   -0.42719  -0.42537  -0.42195  -0.41996  -0.41952
 Alpha  occ. eigenvalues --   -0.41556  -0.41363  -0.41107  -0.41067  -0.40959
 Alpha  occ. eigenvalues --   -0.40715  -0.40533  -0.40253  -0.40142  -0.39950
 Alpha  occ. eigenvalues --   -0.39844  -0.39833  -0.39314  -0.39140  -0.38850
 Alpha  occ. eigenvalues --   -0.38724  -0.38642  -0.38439  -0.38183  -0.37919
 Alpha  occ. eigenvalues --   -0.37545  -0.37405  -0.37209  -0.36797  -0.36499
 Alpha  occ. eigenvalues --   -0.36172  -0.36080  -0.35942  -0.35628  -0.35576
 Alpha  occ. eigenvalues --   -0.35432  -0.35365  -0.34799  -0.34311  -0.33849
 Alpha  occ. eigenvalues --   -0.33507  -0.33075  -0.32517  -0.30725  -0.29520
 Alpha  occ. eigenvalues --   -0.29368  -0.28876  -0.28173  -0.27783  -0.23650
 Alpha  occ. eigenvalues --   -0.20611
 Alpha virt. eigenvalues --   -0.06217  -0.03227   0.01353   0.03916   0.04449
 Alpha virt. eigenvalues --    0.05076   0.06476   0.06774   0.07074   0.07442
 Alpha virt. eigenvalues --    0.08463   0.10319   0.10730   0.11423   0.11756

 Mulliken charges:
               1
     1  Mg   0.806568
     2  C    0.022574
     3  C   -0.199928
     4  C   -0.116063
     5  C   -0.196576
     6  N   -0.650872
     7  C    0.375616
     8  C   -0.156953
     9  C   -0.133984
    10  C    0.297463
    11  C   -0.302747
    12  C   -0.148380
    13  C   -0.259772
    14  C    0.626461
    15  O   -0.463428
    16  O   -0.521520
    17  N   -0.723444
    18  C    0.314801
    19  C    0.073912
    20  C   -0.037857
    21  C    0.295189
    22  C   -0.397542
    23  C   -0.057678
    24  C   -0.240774
    25  N   -0.669395
    26  C    0.280758
    27  C    0.026750
    28  C   -0.007735
    29  C    0.272232
    30  C   -0.332968
    31  C   -0.250458
    32  C   -0.306553
    33  N   -0.722134
    34  C    0.249154
    35  C    0.091063
    36  C    0.027464
    37  C    0.318021
    38  C   -0.383442
    39  C    0.332481
    40  O   -0.455402
    41  C   -0.329854
    42  C    0.608322
    43  O   -0.464338
    44  O   -0.447260
    45  C   -0.086604
    46  C    0.034753
    47  C   -0.154929
    48  C    0.173253
    49  C   -0.371677
    50  C   -0.230773
    51  C   -0.175670
    52  C   -0.164760
    53  C   -0.064762
    54  C   -0.295164
    55  C   -0.167188
    56  C   -0.167141
    57  C   -0.156476
    58  C   -0.047827
    59  C   -0.328519
    60  C   -0.153466
    61  C   -0.182546
    62  C   -0.172548
    63  C   -0.053786
    64  C   -0.297850
    65  C   -0.293866
    66  H    0.082300
    67  H    0.084933
    68  H    0.100974
    69  H    0.102952
    70  H    0.099059
    71  H    0.112510
    72  H    0.108513
    73  H    0.106954
    74  H    0.123683
    75  H    0.097907
    76  H    0.139205
    77  H    0.133168
    78  H    0.132255
    79  H    0.108136
    80  H    0.116284
    81  H    0.092067
    82  H    0.095865
    83  H    0.112986
    84  H    0.075751
    85  H    0.115745
    86  H    0.128027
    87  H    0.103616
    88  H    0.098852
    89  H    0.117380
    90  H    0.103743
    91  H    0.089192
    92  H    0.146871
    93  H    0.152865
    94  H    0.098484
    95  H    0.153294
    96  H    0.135800
    97  H    0.137007
    98  H    0.120085
    99  H    0.135095
   100  H    0.109929
   101  H    0.085470
   102  H    0.110558
   103  H    0.097049
   104  H    0.131625
   105  H    0.068370
   106  H    0.089565
   107  H    0.109314
   108  H    0.106943
   109  H    0.081848
   110  H    0.080120
   111  H    0.044850
   112  H    0.105348
   113  H    0.123994
   114  H    0.087446
   115  H    0.100443
   116  H    0.079709
   117  H    0.098097
   118  H    0.064639
   119  H    0.078846
   120  H    0.075130
   121  H    0.061516
   122  H    0.108171
   123  H    0.114019
   124  H    0.102727
   125  H    0.094045
   126  H    0.046463
   127  H    0.101352
   128  H    0.083444
   129  H    0.080303
   130  H    0.058976
   131  H    0.099864
   132  H    0.082101
   133  H    0.095492
   134  H    0.096655
   135  H    0.103319
   136  H    0.100598
   137  H    0.095879
 Sum of Mulliken charges =   0.00000

 Dipole moment (field-independent basis, Debye):
    X=              1.8087    Y=              3.6052    Z=              0.8860  Tot=              4.1296
 Quadrupole moment (field-independent basis, Debye-Ang):
   XX=           -346.8158   YY=           -392.3845   ZZ=           -402.6096
   XY=            -19.9597   XZ=              2.6143   YZ=             -0.0539

 Normal termination of Gaussian 09 at Mon Jul  1 06:42:36 2019.
