 Gaussian 09, Revision D.01,
 Gaussian 09:  ES64L-G09RevD.01 24-Apr-2013

 -------------------------------------
 # td=(NStates=1) CAM-B3LYP/6-31G(d,p)
 -------------------------------------

 --
 TD
 --
 Symbolic Z-matrix:
 Charge =  0 Multiplicity = 1

                         Standard orientation:
 ---------------------------------------------------------------------
 Center     Atomic      Atomic             Coordinates (Angstroms)
 Number     Number       Type             X           Y           Z
 ---------------------------------------------------------------------
      1         12           0       -7.076001    0.546668   -0.035905
      2          6           0       -4.893554   -1.953953    0.544535
      3          6           0       -4.813571    2.878631    1.100480
      4          6           0       -9.362943    3.017086   -0.409481
      5          6           0       -9.495729   -1.814270   -0.812888
      6          7           0       -5.103777    0.419187    0.742586
      7          6           0       -4.424805   -0.674848    0.886612
      8          6           0       -2.950577   -0.345430    1.246754
      9          6           0       -3.058689    1.058566    1.666745
     10          6           0       -4.413106    1.406625    1.154844
     11          6           0       -2.876336    1.351951    3.170254
     12          6           0       -1.838154   -0.603973    0.201183
     13          6           0       -0.441885   -0.425475    0.676870
     14          6           0        0.546753   -0.548218   -0.438742
     15          8           0        0.319907   -0.911894   -1.533772
     16          8           0        1.823234   -0.343219   -0.062556
     17          7           0       -7.065297    2.647784    0.404298
     18          6           0       -6.023377    3.375317    0.796343
     19          6           0       -6.450850    4.773702    0.918709
     20          6           0       -7.749896    4.871736    0.456644
     21          6           0       -8.151104    3.473583    0.170196
     22          6           0       -5.594249    5.826598    1.314987
     23          6           0       -8.633444    5.885121    0.387592
     24          6           0       -8.351695    7.246069    0.117560
     25          7           0       -9.112628    0.661583   -0.539298
     26          6           0       -9.829732    1.742251   -0.732554
     27          6           0      -11.203778    1.469683   -1.111355
     28          6           0      -11.306568    0.079058   -1.222316
     29          6           0       -9.925553   -0.371015   -0.935043
     30          6           0      -12.351730    2.395863   -1.395444
     31          6           0      -12.323186   -0.816465   -1.726434
     32          6           0      -12.236731   -1.092922   -3.224243
     33          7           0       -7.274466   -1.390963   -0.102789
     34          6           0       -8.236781   -2.298391   -0.569775
     35          6           0       -7.767491   -3.675372   -0.506260
     36          6           0       -6.546320   -3.532656   -0.000815
     37          6           0       -6.216843   -2.123104    0.195741
     38          6           0       -8.514087   -4.971770   -0.930983
     39          6           0       -5.264048   -4.331690    0.147941
     40          8           0       -5.024810   -5.531521    0.095328
     41          6           0       -4.148836   -3.268101    0.460229
     42          6           0       -3.621781   -3.689614    1.813318
     43          8           0       -3.679739   -3.082789    2.851491
     44          8           0       -2.930839   -4.868755    1.724596
     45          6           0       -2.192518   -5.376160    2.874579
     46          6           0        2.791248   -0.585168   -1.102646
     47          6           0        4.137843   -0.293805   -0.430958
     48          6           0        5.088655    0.524073   -0.953816
     49          6           0        4.969878    1.343873   -2.146455
     50          6           0        6.432500    0.585966   -0.193612
     51          6           0        7.562587    0.109401   -0.923872
     52          6           0        8.979615   -0.051621   -0.136116
     53          6           0       10.230895   -0.532435   -1.005566
     54          6           0       10.108604   -1.954119   -1.375944
     55          6           0       11.315323   -0.220858   -0.008782
     56          6           0       12.709150   -0.401182   -0.653795
     57          6           0       13.941043   -0.224027    0.178471
     58          6           0       15.340749   -0.352516   -0.513347
     59          6           0       15.708277   -1.716651   -0.946640
     60          6           0       16.337529    0.431473    0.408841
     61          6           0       17.739417    0.500924   -0.206989
     62          6           0       18.762641    1.277798    0.671603
     63          6           0       20.285394    1.237012    0.246161
     64          6           0       20.297189    1.844124   -1.092812
     65          6           0       21.161207    1.906811    1.309193
     66          1           0       -4.111797    3.319800    1.846048
     67          1           0      -10.202644    3.793043   -0.609213
     68          1           0      -10.231838   -2.412244   -1.128743
     69          1           0       -2.552570   -1.072908    1.979722
     70          1           0       -2.321448    1.668936    0.938246
     71          1           0       -1.816959    1.085034    3.601648
     72          1           0       -2.950234    2.442714    3.445982
     73          1           0       -3.603226    0.782989    3.482082
     74          1           0       -2.033634   -1.629256   -0.283167
     75          1           0       -2.092900   -0.070878   -0.628737
     76          1           0       -0.264532    0.388103    1.248099
     77          1           0       -0.134902   -1.105149    1.369388
     78          1           0       -4.992635    6.039814    0.377867
     79          1           0       -6.165886    6.615039    1.651342
     80          1           0       -4.712790    5.532453    2.022057
     81          1           0       -9.630104    5.645734    0.430218
     82          1           0       -9.225902    7.913213    0.022460
     83          1           0       -7.223377    7.397020   -0.093066
     84          1           0      -11.914290    3.226564   -1.969903
     85          1           0      -13.359276    1.781298   -1.975364
     86          1           0      -12.651495    2.743237   -0.322046
     87          1           0      -12.273176   -1.667360   -1.374482
     88          1           0      -13.231467   -0.448014   -1.580160
     89          1           0      -13.085284   -1.476454   -3.805907
     90          1           0      -12.216890   -0.093683   -3.883315
     91          1           0      -11.373510   -1.662695   -3.376803
     92          1           0       -8.859024   -4.984824   -2.083866
     93          1           0       -7.828820   -5.815389   -0.950565
     94          1           0       -9.459002   -5.153841   -0.440306
     95          1           0       -3.309250   -3.260039   -0.282577
     96          1           0       -1.325320   -4.725009    3.256159
     97          1           0       -3.017753   -5.521265    3.767264
     98          1           0       -1.685079   -6.157222    2.547512
     99          1           0        2.854032   -1.612043   -1.536306
    100          1           0        2.622709   -0.015719   -2.037174
    101          1           0        4.439235   -0.914268    0.348963
    102          1           0        4.044927    1.254912   -2.651387
    103          1           0        4.945897    2.360210   -1.955940
    104          1           0        5.621599    1.088397   -2.959347
    105          1           0        6.890268    1.660880    0.154552
    106          1           0        6.529120    0.102110    0.753265
    107          1           0        7.212011   -1.023005   -1.288987
    108          1           0        7.763759    0.518598   -1.822623
    109          1           0        9.084919    0.931255    0.390033
    110          1           0        8.931774   -0.703423    0.645401
    111          1           0       10.357754    0.300587   -1.746921
    112          1           0        9.166452   -2.000269   -2.207061
    113          1           0       10.980984   -2.027679   -1.845994
    114          1           0        9.603586   -2.538853   -0.524840
    115          1           0       11.275657    0.728651    0.424803
    116          1           0       11.213920   -0.861094    0.837835
    117          1           0       12.866350   -1.421815   -1.184942
    118          1           0       12.756516    0.321943   -1.453694
    119          1           0       13.789731    0.765704    0.686083
    120          1           0       13.702439   -0.717826    1.255742
    121          1           0       15.469929    0.308390   -1.473755
    122          1           0       15.816418   -2.281109   -0.025541
    123          1           0       15.035896   -2.111587   -1.592793
    124          1           0       16.728164   -1.719649   -1.728924
    125          1           0       16.096161    1.524368    0.590994
    126          1           0       16.587088   -0.200150    1.301738
    127          1           0       18.214954   -0.586334   -0.251901
    128          1           0       17.654032    0.783544   -1.234772
    129          1           0       18.508295    2.424645    0.728002
    130          1           0       18.684833    0.796375    1.838188
    131          1           0       20.777145    0.191642    0.076352
    132          1           0       19.756566    2.792688   -0.953067
    133          1           0       21.418512    2.222290   -1.492566
    134          1           0       19.825011    1.154863   -1.899885
    135          1           0       20.889455    1.305539    2.226200
    136          1           0       22.198946    1.825648    0.986637
    137          1           0       20.865834    3.030184    1.270141
 ---------------------------------------------------------------------

 SCF Done:  E(RCAM-B3LYP) =  -2932.58958643     A.U. after   18 cycles

 Excitation energies and oscillator strengths:

 Excited State   1:      Singlet-A      2.0653 eV  600.33 nm  f=0.1928  <S**2>=0.000
     240 -> 243       -0.28429
     241 -> 242        0.63302
 This state for optimization and/or second-order correction.
 Total Energy, E(TD-HF/TD-KS) =  -2932.51368901
 Copying the excited state density for this state as the 1-particle RhoCI density.

 The electronic state is 1-A.
 Alpha  occ. eigenvalues --  -46.85614 -19.26219 -19.25366 -19.21237 -19.21126
 Alpha  occ. eigenvalues --  -19.20976 -14.42671 -14.40081 -14.38820 -14.38754
 Alpha  occ. eigenvalues --  -10.39342 -10.38892 -10.36094 -10.32115 -10.31965
 Alpha  occ. eigenvalues --  -10.31547 -10.31027 -10.29471 -10.29283 -10.29221
 Alpha  occ. eigenvalues --  -10.29176 -10.28765 -10.28761 -10.28677 -10.28403
 Alpha  occ. eigenvalues --  -10.28188 -10.27882 -10.27792 -10.27671 -10.27604
 Alpha  occ. eigenvalues --  -10.27321 -10.27059 -10.27054 -10.27040 -10.26879
 Alpha  occ. eigenvalues --  -10.26803 -10.26726 -10.26678 -10.26539 -10.26163
 Alpha  occ. eigenvalues --  -10.26138 -10.26093 -10.26043 -10.25977 -10.25820
 Alpha  occ. eigenvalues --  -10.25783 -10.25782 -10.25740 -10.25731 -10.25668
 Alpha  occ. eigenvalues --  -10.25664 -10.25605 -10.25566 -10.25527 -10.25501
 Alpha  occ. eigenvalues --  -10.25458 -10.25434 -10.25395 -10.25036 -10.25020
 Alpha  occ. eigenvalues --  -10.24922 -10.24894 -10.24369 -10.24053 -10.23130
 Alpha  occ. eigenvalues --   -3.14573  -1.89273  -1.88834  -1.88726  -1.19808
 Alpha  occ. eigenvalues --   -1.17330  -1.11162  -1.10244  -1.09369  -1.08707
 Alpha  occ. eigenvalues --   -1.04960  -1.03687  -1.02878  -0.93105  -0.92284
 Alpha  occ. eigenvalues --   -0.91686  -0.90833  -0.90109  -0.89900  -0.89801
 Alpha  occ. eigenvalues --   -0.88797  -0.88493  -0.87872  -0.87646  -0.86283
 Alpha  occ. eigenvalues --   -0.85498  -0.84601  -0.83902  -0.83660  -0.82785
 Alpha  occ. eigenvalues --   -0.82039  -0.81168  -0.80870  -0.80484  -0.79290
 Alpha  occ. eigenvalues --   -0.77288  -0.77146  -0.77025  -0.76197  -0.75937
 Alpha  occ. eigenvalues --   -0.75406  -0.74983  -0.74377  -0.73406  -0.72369
 Alpha  occ. eigenvalues --   -0.72200  -0.71400  -0.70754  -0.68302  -0.68083
 Alpha  occ. eigenvalues --   -0.67313  -0.66308  -0.65767  -0.64700  -0.64247
 Alpha  occ. eigenvalues --   -0.64145  -0.63887  -0.63619  -0.62199  -0.61990
 Alpha  occ. eigenvalues --   -0.61780  -0.60895  -0.60725  -0.60456  -0.59969
 Alpha  occ. eigenvalues --   -0.58985  -0.58507  -0.57836  -0.57791  -0.57450
 Alpha  occ. eigenvalues --   -0.57074  -0.56292  -0.55791  -0.55158  -0.54984
 Alpha  occ. eigenvalues --   -0.54810  -0.54616  -0.54207  -0.54118  -0.53695
 Alpha  occ. eigenvalues --   -0.53385  -0.53064  -0.52899  -0.52496  -0.52198
 Alpha  occ. eigenvalues --   -0.51631  -0.51341  -0.51043  -0.50847  -0.50680
 Alpha  occ. eigenvalues --   -0.50589  -0.50375  -0.50189  -0.50123  -0.50094
 Alpha  occ. eigenvalues --   -0.49499  -0.49340  -0.49207  -0.49058  -0.48955
 Alpha  occ. eigenvalues --   -0.48567  -0.48473  -0.48135  -0.47953  -0.47366
 Alpha  occ. eigenvalues --   -0.47215  -0.47110  -0.46809  -0.46423  -0.46228
 Alpha  occ. eigenvalues --   -0.46051  -0.45882  -0.45658  -0.45358  -0.45292
 Alpha  occ. eigenvalues --   -0.45064  -0.44770  -0.44549  -0.44370  -0.44094
 Alpha  occ. eigenvalues --   -0.43907  -0.43833  -0.43737  -0.43627  -0.43562
 Alpha  occ. eigenvalues --   -0.43335  -0.43149  -0.43041  -0.42896  -0.42704
 Alpha  occ. eigenvalues --   -0.42390  -0.42365  -0.42184  -0.41612  -0.41243
 Alpha  occ. eigenvalues --   -0.41015  -0.40836  -0.40814  -0.40489  -0.40132
 Alpha  occ. eigenvalues --   -0.40059  -0.39975  -0.39781  -0.39403  -0.39358
 Alpha  occ. eigenvalues --   -0.38755  -0.38594  -0.38266  -0.37989  -0.37741
 Alpha  occ. eigenvalues --   -0.37335  -0.37072  -0.36965  -0.36568  -0.36366
 Alpha  occ. eigenvalues --   -0.36332  -0.36210  -0.36139  -0.35674  -0.35641
 Alpha  occ. eigenvalues --   -0.35274  -0.34798  -0.34402  -0.34255  -0.33634
 Alpha  occ. eigenvalues --   -0.33376  -0.32729  -0.32271  -0.31487  -0.30311
 Alpha  occ. eigenvalues --   -0.29820  -0.29761  -0.27544  -0.25715  -0.23189
 Alpha  occ. eigenvalues --   -0.20131
 Alpha virt. eigenvalues --   -0.05180  -0.03562   0.00701   0.03331   0.04065
 Alpha virt. eigenvalues --    0.06057   0.06101   0.07018   0.07481   0.07585
 Alpha virt. eigenvalues --    0.08231   0.10264   0.10768   0.11210   0.11376

 Mulliken charges:
               1
     1  Mg   0.847159
     2  C    0.043961
     3  C   -0.222852
     4  C   -0.199130
     5  C   -0.152384
     6  N   -0.589692
     7  C    0.309669
     8  C   -0.154293
     9  C   -0.167473
    10  C    0.286607
    11  C   -0.285662
    12  C   -0.185841
    13  C   -0.259501
    14  C    0.602449
    15  O   -0.454074
    16  O   -0.480301
    17  N   -0.702208
    18  C    0.372217
    19  C    0.018417
    20  C    0.081152
    21  C    0.266989
    22  C   -0.387742
    23  C   -0.113631
    24  C   -0.264184
    25  N   -0.653806
    26  C    0.336056
    27  C   -0.000170
    28  C    0.032603
    29  C    0.201680
    30  C   -0.352876
    31  C   -0.204122
    32  C   -0.317858
    33  N   -0.756554
    34  C    0.229419
    35  C    0.061168
    36  C   -0.042304
    37  C    0.357002
    38  C   -0.377067
    39  C    0.383371
    40  O   -0.448378
    41  C   -0.333874
    42  C    0.625693
    43  O   -0.459191
    44  O   -0.465516
    45  C   -0.061268
    46  C    0.004473
    47  C   -0.132912
    48  C    0.132280
    49  C   -0.380289
    50  C   -0.213527
    51  C   -0.157205
    52  C   -0.200154
    53  C   -0.073832
    54  C   -0.273607
    55  C   -0.174274
    56  C   -0.180504
    57  C   -0.182855
    58  C   -0.054739
    59  C   -0.285275
    60  C   -0.164269
    61  C   -0.187824
    62  C   -0.151629
    63  C   -0.059852
    64  C   -0.277583
    65  C   -0.284788
    66  H    0.077236
    67  H    0.072730
    68  H    0.067201
    69  H    0.124581
    70  H    0.102672
    71  H    0.097518
    72  H    0.110452
    73  H    0.141639
    74  H    0.097564
    75  H    0.123466
    76  H    0.142421
    77  H    0.150099
    78  H    0.126089
    79  H    0.127149
    80  H    0.102601
    81  H    0.092630
    82  H    0.111351
    83  H    0.103669
    84  H    0.126496
    85  H    0.086490
    86  H    0.120064
    87  H    0.111076
    88  H    0.102456
    89  H    0.104261
    90  H    0.081098
    91  H    0.114693
    92  H    0.103219
    93  H    0.154024
    94  H    0.136852
    95  H    0.174418
    96  H    0.103734
    97  H    0.120047
    98  H    0.137722
    99  H    0.124562
   100  H    0.123562
   101  H    0.094590
   102  H    0.108855
   103  H    0.132139
   104  H    0.126695
   105  H    0.061920
   106  H    0.105824
   107  H    0.036443
   108  H    0.103544
   109  H    0.076467
   110  H    0.096523
   111  H    0.089512
   112  H    0.074980
   113  H    0.121021
   114  H    0.114528
   115  H    0.102201
   116  H    0.088376
   117  H    0.073022
   118  H    0.092241
   119  H    0.085057
   120  H    0.067556
   121  H    0.071916
   122  H    0.108515
   123  H    0.123086
   124  H    0.065891
   125  H    0.097743
   126  H    0.091087
   127  H    0.080342
   128  H    0.094635
   129  H    0.076673
   130  H    0.052264
   131  H    0.072196
   132  H    0.093894
   133  H    0.058894
   134  H    0.102961
   135  H    0.105553
   136  H    0.106223
   137  H    0.085499
 Sum of Mulliken charges =   0.00000

 Dipole moment (field-independent basis, Debye):
    X=              1.9864    Y=              2.1758    Z=             -0.3548  Tot=              2.9675
 Quadrupole moment (field-independent basis, Debye-Ang):
   XX=           -374.3840   YY=           -400.5201   ZZ=           -396.7088
   XY=             -7.8544   XZ=             10.5330   YZ=             -2.5012

 Normal termination of Gaussian 09 at Thu Jun 27 15:18:20 2019.
