 Gaussian 09, Revision D.01,
 Gaussian 09:  ES64L-G09RevD.01 24-Apr-2013

 -------------------------------------
 # td=(NStates=1) CAM-B3LYP/6-31G(d,p)
 -------------------------------------

 --
 TD
 --
 Symbolic Z-matrix:
 Charge =  0 Multiplicity = 1

                         Standard orientation:
 ---------------------------------------------------------------------
 Center     Atomic      Atomic             Coordinates (Angstroms)
 Number     Number       Type             X           Y           Z
 ---------------------------------------------------------------------
      1         12           0       -7.140296    0.587699    0.072162
      2          6           0       -4.884392   -1.985492    0.474921
      3          6           0       -4.862710    2.822531    1.070984
      4          6           0       -9.494512    3.007474   -0.226148
      5          6           0       -9.553438   -1.755263   -0.896964
      6          7           0       -5.060353    0.396071    0.532361
      7          6           0       -4.320871   -0.736071    0.746498
      8          6           0       -2.937202   -0.370750    1.227808
      9          6           0       -3.007430    1.108750    1.678109
     10          6           0       -4.400399    1.397038    1.105830
     11          6           0       -2.807967    1.234326    3.144657
     12          6           0       -1.901650   -0.710381    0.081438
     13          6           0       -0.535201   -0.501567    0.510442
     14          6           0        0.438402   -0.610226   -0.683247
     15          8           0        0.204138   -0.954240   -1.783784
     16          8           0        1.727629   -0.432618   -0.189352
     17          7           0       -7.187653    2.560821    0.465122
     18          6           0       -6.145001    3.347633    0.781028
     19          6           0       -6.572089    4.765289    0.932681
     20          6           0       -7.858537    4.863947    0.465480
     21          6           0       -8.208451    3.406421    0.256277
     22          6           0       -5.641631    5.855890    1.255284
     23          6           0       -8.698051    5.967253    0.465674
     24          6           0       -8.446589    7.232058    0.130397
     25          7           0       -9.062104    0.658236   -0.569467
     26          6           0       -9.858962    1.817977   -0.647637
     27          6           0      -11.241176    1.537270   -1.078039
     28          6           0      -11.208153    0.174766   -1.237296
     29          6           0       -9.910083   -0.374531   -0.928721
     30          6           0      -12.180406    2.504379   -1.359196
     31          6           0      -12.500316   -0.565151   -1.686211
     32          6           0      -12.397519   -0.978100   -3.174181
     33          7           0       -7.278478   -1.431948   -0.221285
     34          6           0       -8.339034   -2.199854   -0.536475
     35          6           0       -7.918012   -3.682410   -0.484889
     36          6           0       -6.513704   -3.650414   -0.188687
     37          6           0       -6.230567   -2.127905    0.044307
     38          6           0       -8.590763   -4.958117   -0.702408
     39          6           0       -5.396210   -4.342097    0.137140
     40          8           0       -5.101026   -5.611032    0.166600
     41          6           0       -4.154875   -3.324172    0.522315
     42          6           0       -3.512353   -3.683957    1.841784
     43          8           0       -3.777246   -3.242454    2.849115
     44          8           0       -2.713007   -4.737287    1.566101
     45          6           0       -2.246868   -5.310112    2.826732
     46          6           0        2.798214   -0.573838   -1.227886
     47          6           0        4.093620   -0.489590   -0.585284
     48          6           0        5.128295    0.292865   -0.908613
     49          6           0        5.050965    1.446119   -2.057989
     50          6           0        6.468230    0.300679   -0.015576
     51          6           0        7.607992   -0.109175   -0.971341
     52          6           0        9.027934   -0.022391   -0.064965
     53          6           0       10.224107   -0.530490   -0.899351
     54          6           0       10.244910   -2.022515   -1.303360
     55          6           0       11.500404   -0.318184   -0.080711
     56          6           0       12.793069   -0.494977   -0.717306
     57          6           0       13.985887    0.033063    0.218339
     58          6           0       15.405714   -0.216417   -0.430822
     59          6           0       15.832112   -1.613880   -0.776856
     60          6           0       16.524666    0.409542    0.546517
     61          6           0       17.854783    0.609496   -0.151449
     62          6           0       19.007228    1.254330    0.745001
     63          6           0       20.441830    1.286445    0.183575
     64          6           0       20.421470    2.144420   -1.099364
     65          6           0       21.288003    1.925194    1.192739
     66          1           0       -4.200285    3.652315    1.432913
     67          1           0      -10.399842    3.659861   -0.298957
     68          1           0      -10.297360   -2.505602   -0.891579
     69          1           0       -2.888796   -1.036885    2.082003
     70          1           0       -2.299982    1.728144    1.239934
     71          1           0       -1.770222    0.953475    3.570028
     72          1           0       -3.077220    2.129715    3.649027
     73          1           0       -3.481421    0.677054    3.590891
     74          1           0       -2.041068   -1.496307   -0.531784
     75          1           0       -2.404695   -0.005846   -0.655008
     76          1           0       -0.358663    0.575181    0.927680
     77          1           0       -0.224494   -1.375842    1.282039
     78          1           0       -4.985393    6.238943    0.405283
     79          1           0       -6.312407    6.697178    1.692842
     80          1           0       -5.303497    5.489099    2.338359
     81          1           0       -9.769932    5.832480    0.705059
     82          1           0       -9.345350    7.936517    0.356407
     83          1           0       -7.464727    7.540237   -0.193492
     84          1           0      -11.896454    3.363394   -2.010423
     85          1           0      -13.261230    2.109277   -1.713771
     86          1           0      -12.391932    3.058222   -0.445875
     87          1           0      -12.530141   -1.449178   -0.912321
     88          1           0      -13.519689   -0.063005   -1.505368
     89          1           0      -13.385385   -1.610934   -3.538622
     90          1           0      -12.626981   -0.240219   -3.860180
     91          1           0      -11.531525   -1.587027   -3.216415
     92          1           0       -9.014243   -4.934697   -1.764294
     93          1           0       -8.066350   -5.762084   -0.792817
     94          1           0       -9.231193   -5.001474    0.334945
     95          1           0       -3.542822   -3.410571   -0.293203
     96          1           0       -1.623140   -4.592446    3.309490
     97          1           0       -3.085117   -5.558354    3.567458
     98          1           0       -1.434944   -6.115996    2.548736
     99          1           0        2.856904   -1.520769   -1.778301
    100          1           0        2.540327    0.166470   -2.051473
    101          1           0        4.371081   -1.106593    0.242099
    102          1           0        4.142260    1.691561   -2.579484
    103          1           0        5.434668    2.173780   -1.658393
    104          1           0        5.665974    1.232763   -2.786910
    105          1           0        6.661577    1.287744    0.360964
    106          1           0        6.169423   -0.465993    0.822698
    107          1           0        7.337750   -0.993841   -1.315622
    108          1           0        7.761321    0.544299   -1.828439
    109          1           0        9.204064    0.820383    0.468324
    110          1           0        8.880227   -0.496963    0.855974
    111          1           0       10.546752    0.091367   -1.885533
    112          1           0        9.412270   -2.423983   -1.793632
    113          1           0       10.951343   -2.449601   -2.170445
    114          1           0       10.259227   -2.674589   -0.566955
    115          1           0       11.352965    0.668935    0.357120
    116          1           0       11.449625   -0.984507    0.790106
    117          1           0       12.998864   -1.592875   -1.133939
    118          1           0       13.009005   -0.012880   -1.832013
    119          1           0       13.866330    1.126786    0.122711
    120          1           0       13.900296   -0.393352    1.255603
    121          1           0       15.335356    0.298068   -1.493900
    122          1           0       15.935032   -2.267876    0.213059
    123          1           0       14.818128   -2.129231   -1.310591
    124          1           0       16.745927   -1.560538   -1.261861
    125          1           0       16.158356    1.399057    0.952000
    126          1           0       16.481068   -0.337763    1.479869
    127          1           0       18.210604   -0.250460   -0.571534
    128          1           0       17.698392    1.148385   -1.044800
    129          1           0       18.628842    2.226045    0.865420
    130          1           0       19.083321    0.784973    1.738448
    131          1           0       20.696476    0.293395    0.055916
    132          1           0       19.857174    3.170596   -0.946073
    133          1           0       21.589902    2.461218   -1.467777
    134          1           0       19.993037    1.651701   -1.996901
    135          1           0       21.382449    1.088407    1.973474
    136          1           0       22.405230    2.049793    0.904772
    137          1           0       21.078427    2.955108    1.634649
 ---------------------------------------------------------------------

 SCF Done:  E(RCAM-B3LYP) =  -2932.54998994     A.U. after   16 cycles

 Excitation energies and oscillator strengths:

 Excited State   1:      Singlet-A      1.8645 eV  664.96 nm  f=0.2841  <S**2>=0.000
     240 -> 243       -0.20643
     241 -> 242        0.66957
 This state for optimization and/or second-order correction.
 Total Energy, E(TD-HF/TD-KS) =  -2932.48146996
 Copying the excited state density for this state as the 1-particle RhoCI density.

 The electronic state is 1-A.
 Alpha  occ. eigenvalues --  -46.85145 -19.25518 -19.25354 -19.21926 -19.21493
 Alpha  occ. eigenvalues --  -19.18293 -14.42798 -14.40526 -14.39975 -14.39168
 Alpha  occ. eigenvalues --  -10.39103 -10.38075 -10.34012 -10.32271 -10.31830
 Alpha  occ. eigenvalues --  -10.31448 -10.30643 -10.30237 -10.30117 -10.30020
 Alpha  occ. eigenvalues --  -10.29782 -10.29610 -10.29334 -10.29278 -10.27822
 Alpha  occ. eigenvalues --  -10.27753 -10.27644 -10.27562 -10.27533 -10.27519
 Alpha  occ. eigenvalues --  -10.27408 -10.27376 -10.27050 -10.26773 -10.26752
 Alpha  occ. eigenvalues --  -10.26711 -10.26700 -10.26698 -10.26694 -10.26686
 Alpha  occ. eigenvalues --  -10.26679 -10.26672 -10.26615 -10.26577 -10.26572
 Alpha  occ. eigenvalues --  -10.26311 -10.26184 -10.25966 -10.25951 -10.25678
 Alpha  occ. eigenvalues --  -10.25660 -10.25644 -10.25574 -10.25434 -10.25401
 Alpha  occ. eigenvalues --  -10.25379 -10.25301 -10.25290 -10.25012 -10.24745
 Alpha  occ. eigenvalues --  -10.24403 -10.24237 -10.23990 -10.23583 -10.22844
 Alpha  occ. eigenvalues --   -3.14233  -1.88927  -1.88467  -1.88428  -1.20286
 Alpha  occ. eigenvalues --   -1.17683  -1.11540  -1.09245  -1.06191  -1.05310
 Alpha  occ. eigenvalues --   -1.04530  -1.04474  -1.01627  -0.91907  -0.91279
 Alpha  occ. eigenvalues --   -0.90505  -0.90349  -0.90020  -0.89497  -0.89423
 Alpha  occ. eigenvalues --   -0.88684  -0.87949  -0.87853  -0.87642  -0.86160
 Alpha  occ. eigenvalues --   -0.85073  -0.84355  -0.83851  -0.83037  -0.82754
 Alpha  occ. eigenvalues --   -0.81515  -0.81089  -0.80485  -0.80150  -0.79245
 Alpha  occ. eigenvalues --   -0.77858  -0.77567  -0.77097  -0.75772  -0.75530
 Alpha  occ. eigenvalues --   -0.75095  -0.74414  -0.74230  -0.73355  -0.72451
 Alpha  occ. eigenvalues --   -0.71832  -0.70845  -0.68940  -0.68885  -0.68698
 Alpha  occ. eigenvalues --   -0.67798  -0.67582  -0.66341  -0.65662  -0.64951
 Alpha  occ. eigenvalues --   -0.64071  -0.63675  -0.63122  -0.62701  -0.61948
 Alpha  occ. eigenvalues --   -0.60827  -0.60542  -0.60134  -0.59604  -0.59114
 Alpha  occ. eigenvalues --   -0.58948  -0.58400  -0.58075  -0.57510  -0.56483
 Alpha  occ. eigenvalues --   -0.56054  -0.55619  -0.55340  -0.54870  -0.54586
 Alpha  occ. eigenvalues --   -0.54179  -0.54039  -0.53834  -0.53601  -0.53428
 Alpha  occ. eigenvalues --   -0.53115  -0.52924  -0.52550  -0.52117  -0.52000
 Alpha  occ. eigenvalues --   -0.51584  -0.51455  -0.51342  -0.50973  -0.50427
 Alpha  occ. eigenvalues --   -0.50252  -0.50038  -0.49883  -0.49751  -0.49489
 Alpha  occ. eigenvalues --   -0.49457  -0.48981  -0.48915  -0.48783  -0.48529
 Alpha  occ. eigenvalues --   -0.48105  -0.48047  -0.47678  -0.47611  -0.47446
 Alpha  occ. eigenvalues --   -0.47213  -0.46886  -0.46773  -0.46710  -0.46666
 Alpha  occ. eigenvalues --   -0.46515  -0.45789  -0.45147  -0.45140  -0.45026
 Alpha  occ. eigenvalues --   -0.44608  -0.44538  -0.44277  -0.44127  -0.44072
 Alpha  occ. eigenvalues --   -0.43988  -0.43659  -0.43541  -0.43462  -0.43221
 Alpha  occ. eigenvalues --   -0.43045  -0.42945  -0.42837  -0.42396  -0.42164
 Alpha  occ. eigenvalues --   -0.42050  -0.41911  -0.41629  -0.41362  -0.41239
 Alpha  occ. eigenvalues --   -0.40985  -0.40862  -0.40686  -0.40445  -0.40011
 Alpha  occ. eigenvalues --   -0.39921  -0.39809  -0.39665  -0.39518  -0.39211
 Alpha  occ. eigenvalues --   -0.38793  -0.38456  -0.38192  -0.37838  -0.37451
 Alpha  occ. eigenvalues --   -0.37193  -0.37122  -0.37054  -0.36774  -0.36714
 Alpha  occ. eigenvalues --   -0.36556  -0.36298  -0.36187  -0.35925  -0.35708
 Alpha  occ. eigenvalues --   -0.35384  -0.34880  -0.34373  -0.34147  -0.33750
 Alpha  occ. eigenvalues --   -0.32998  -0.32560  -0.32040  -0.30633  -0.29592
 Alpha  occ. eigenvalues --   -0.29480  -0.28361  -0.28172  -0.27742  -0.23618
 Alpha  occ. eigenvalues --   -0.19740
 Alpha virt. eigenvalues --   -0.06218  -0.02839   0.00368   0.03679   0.05702
 Alpha virt. eigenvalues --    0.05829   0.06489   0.06895   0.07298   0.07642
 Alpha virt. eigenvalues --    0.08726   0.10678   0.10830   0.11636   0.11829

 Mulliken charges:
               1
     1  Mg   0.830494
     2  C    0.025311
     3  C   -0.230708
     4  C   -0.182603
     5  C   -0.164272
     6  N   -0.594751
     7  C    0.270001
     8  C   -0.178018
     9  C   -0.115563
    10  C    0.301528
    11  C   -0.314839
    12  C   -0.160193
    13  C   -0.254303
    14  C    0.607767
    15  O   -0.438184
    16  O   -0.510803
    17  N   -0.685457
    18  C    0.321869
    19  C    0.004195
    20  C    0.062628
    21  C    0.264310
    22  C   -0.385246
    23  C   -0.101950
    24  C   -0.237766
    25  N   -0.708429
    26  C    0.293518
    27  C    0.133278
    28  C   -0.030701
    29  C    0.294206
    30  C   -0.424901
    31  C   -0.239285
    32  C   -0.288714
    33  N   -0.726364
    34  C    0.282886
    35  C   -0.009967
    36  C    0.091339
    37  C    0.313094
    38  C   -0.344568
    39  C    0.271016
    40  O   -0.526370
    41  C   -0.286958
    42  C    0.630273
    43  O   -0.424209
    44  O   -0.453189
    45  C   -0.096892
    46  C    0.020518
    47  C   -0.133269
    48  C    0.063988
    49  C   -0.348834
    50  C   -0.231666
    51  C   -0.166798
    52  C   -0.199933
    53  C   -0.044971
    54  C   -0.316770
    55  C   -0.164382
    56  C   -0.178350
    57  C   -0.170788
    58  C   -0.064921
    59  C   -0.275951
    60  C   -0.163870
    61  C   -0.196713
    62  C   -0.172311
    63  C   -0.046915
    64  C   -0.291256
    65  C   -0.295955
    66  H    0.079143
    67  H    0.071645
    68  H    0.102145
    69  H    0.131675
    70  H    0.120026
    71  H    0.105212
    72  H    0.110634
    73  H    0.131331
    74  H    0.136774
    75  H    0.106461
    76  H    0.128159
    77  H    0.135513
    78  H    0.135585
    79  H    0.113307
    80  H    0.111893
    81  H    0.095431
    82  H    0.097304
    83  H    0.104249
    84  H    0.135331
    85  H    0.102050
    86  H    0.127611
    87  H    0.088496
    88  H    0.095065
    89  H    0.059312
    90  H    0.127829
    91  H    0.121823
    92  H    0.118473
    93  H    0.161226
    94  H    0.119871
    95  H    0.160284
    96  H    0.123976
    97  H    0.138257
    98  H    0.115369
    99  H    0.132402
   100  H    0.118497
   101  H    0.084380
   102  H    0.107797
   103  H    0.120514
   104  H    0.122812
   105  H    0.112415
   106  H    0.093238
   107  H    0.117454
   108  H    0.106525
   109  H    0.099194
   110  H    0.095962
   111  H    0.069710
   112  H    0.096013
   113  H    0.084168
   114  H    0.113759
   115  H    0.083879
   116  H    0.092023
   117  H    0.081867
   118  H    0.057719
   119  H    0.106177
   120  H    0.090042
   121  H    0.063896
   122  H    0.076535
   123  H    0.071814
   124  H    0.117506
   125  H    0.081824
   126  H    0.073410
   127  H    0.095168
   128  H    0.102066
   129  H    0.098214
   130  H    0.084498
   131  H    0.102677
   132  H    0.091764
   133  H    0.060323
   134  H    0.102165
   135  H    0.086970
   136  H    0.084851
   137  H    0.104947
 Sum of Mulliken charges =   0.00000

 Dipole moment (field-independent basis, Debye):
    X=              0.7451    Y=              5.0383    Z=              1.3452  Tot=              5.2678
 Quadrupole moment (field-independent basis, Debye-Ang):
   XX=           -353.5091   YY=           -401.0661   ZZ=           -394.6677
   XY=            -25.6033   XZ=              5.2244   YZ=             -2.3035

 Normal termination of Gaussian 09 at Thu Jun 27 07:26:16 2019.
