 Gaussian 09, Revision D.01,
 Gaussian 09:  ES64L-G09RevD.01 24-Apr-2013

 -------------------------------------
 # td=(NStates=1) CAM-B3LYP/6-31G(d,p)
 -------------------------------------

 --
 TD
 --
 Symbolic Z-matrix:
 Charge =  0 Multiplicity = 1

                         Standard orientation:
 ---------------------------------------------------------------------
 Center     Atomic      Atomic             Coordinates (Angstroms)
 Number     Number       Type             X           Y           Z
 ---------------------------------------------------------------------
      1         12           0       -7.202872    0.559933    0.053263
      2          6           0       -4.802564   -1.902773    0.480871
      3          6           0       -4.790886    2.899965    1.110453
      4          6           0       -9.468434    3.008187   -0.334908
      5          6           0       -9.576089   -1.822324   -0.760859
      6          7           0       -5.128692    0.436282    0.655780
      7          6           0       -4.306403   -0.673733    0.656156
      8          6           0       -2.936933   -0.315101    1.202622
      9          6           0       -3.067584    1.197642    1.720513
     10          6           0       -4.406486    1.525586    1.136986
     11          6           0       -2.970173    1.385600    3.195350
     12          6           0       -1.827281   -0.599424    0.176826
     13          6           0       -0.372474   -0.437540    0.543957
     14          6           0        0.492832   -0.598054   -0.652103
     15          8           0        0.117964   -0.976849   -1.683132
     16          8           0        1.789283   -0.438279   -0.217436
     17          7           0       -7.118561    2.537640    0.341030
     18          6           0       -6.130091    3.330834    0.739525
     19          6           0       -6.503693    4.754082    0.657315
     20          6           0       -7.840068    4.766712    0.363344
     21          6           0       -8.197579    3.387524    0.122099
     22          6           0       -5.650584    5.734972    1.254153
     23          6           0       -8.786300    5.828720    0.319970
     24          6           0       -8.436140    7.156831    0.178265
     25          7           0       -9.179354    0.598991   -0.473145
     26          6           0       -9.941909    1.720613   -0.556866
     27          6           0      -11.237911    1.480143   -0.995411
     28          6           0      -11.269408    0.078962   -1.243415
     29          6           0       -9.958843   -0.466673   -0.717499
     30          6           0      -12.313388    2.452112   -1.206018
     31          6           0      -12.396001   -0.777844   -1.810007
     32          6           0      -12.202809   -1.152676   -3.241307
     33          7           0       -7.254103   -1.400254   -0.115109
     34          6           0       -8.295369   -2.327981   -0.474815
     35          6           0       -7.845352   -3.593198   -0.451146
     36          6           0       -6.512245   -3.552236   -0.088029
     37          6           0       -6.169081   -2.221920    0.111893
     38          6           0       -8.664981   -4.826370   -0.766472
     39          6           0       -5.290727   -4.358789    0.148224
     40          8           0       -5.090837   -5.491204    0.148958
     41          6           0       -4.061618   -3.264088    0.481167
     42          6           0       -3.509251   -3.645796    1.812300
     43          8           0       -3.764614   -3.219905    2.967628
     44          8           0       -2.696125   -4.714815    1.659138
     45          6           0       -2.193582   -5.166254    2.878876
     46          6           0        2.772049   -0.541549   -1.308033
     47          6           0        4.119611   -0.383490   -0.592449
     48          6           0        5.149430    0.454390   -1.053722
     49          6           0        5.068618    1.285310   -2.303501
     50          6           0        6.465412    0.434772   -0.187043
     51          6           0        7.615460   -0.111767   -0.953814
     52          6           0        8.861772   -0.170650   -0.126100
     53          6           0       10.271357   -0.434468   -0.959666
     54          6           0       10.207132   -1.962061   -1.451808
     55          6           0       11.459942   -0.259194   -0.033031
     56          6           0       12.795834   -0.464768   -0.670334
     57          6           0       14.015469   -0.057018    0.093939
     58          6           0       15.390155   -0.189329   -0.539465
     59          6           0       15.740454   -1.610334   -0.812304
     60          6           0       16.383569    0.356129    0.395396
     61          6           0       17.859738    0.556503   -0.190320
     62          6           0       18.800437    1.350634    0.841126
     63          6           0       20.278861    1.286941    0.304170
     64          6           0       20.427090    1.950607   -1.056042
     65          6           0       21.234045    1.857595    1.424641
     66          1           0       -3.953294    3.737867    1.334767
     67          1           0      -10.080989    3.797813   -0.172990
     68          1           0      -10.270939   -2.527441   -1.081002
     69          1           0       -2.696206   -0.973609    2.183816
     70          1           0       -2.359446    1.886509    1.385508
     71          1           0       -1.936359    1.241483    3.597686
     72          1           0       -3.259903    2.514221    3.170449
     73          1           0       -3.496188    0.652951    3.861428
     74          1           0       -1.948562   -1.629166   -0.159477
     75          1           0       -1.989285    0.077963   -0.621899
     76          1           0        0.043862    0.565003    1.210635
     77          1           0       -0.285720   -1.041235    1.402901
     78          1           0       -5.003271    6.134899    0.371827
     79          1           0       -6.195441    6.642620    1.355790
     80          1           0       -5.169563    5.548936    2.126873
     81          1           0       -9.880989    5.862275    0.781300
     82          1           0       -9.149286    7.939303    0.336540
     83          1           0       -7.427961    7.440769   -0.327855
     84          1           0      -12.239363    3.272772   -2.016880
     85          1           0      -13.369243    2.103958   -1.371386
     86          1           0      -12.409804    3.216696   -0.473895
     87          1           0      -12.455202   -1.684994   -1.183028
     88          1           0      -13.261007   -0.212641   -1.729472
     89          1           0      -12.936389   -1.837649   -3.281436
     90          1           0      -12.093114   -0.496736   -4.005867
     91          1           0      -11.232220   -1.772616   -3.373130
     92          1           0       -8.640982   -5.024618   -1.960543
     93          1           0       -8.139158   -5.848552   -0.094867
     94          1           0       -9.886419   -4.585898   -0.467070
     95          1           0       -3.175668   -3.391608   -0.325885
     96          1           0       -1.765485   -4.410895    3.869871
     97          1           0       -3.121785   -5.670319    3.344747
     98          1           0       -1.302032   -5.857067    2.595164
     99          1           0        2.642316   -1.486035   -1.881148
    100          1           0        2.516603    0.256725   -2.083033
    101          1           0        4.180228   -0.819945    0.414158
    102          1           0        4.177739    1.560739   -2.680877
    103          1           0        5.600741    2.248870   -1.788816
    104          1           0        5.828197    1.083458   -3.174902
    105          1           0        6.891491    1.388653    0.275604
    106          1           0        6.433989   -0.111019    0.721021
    107          1           0        7.627140   -1.185896   -1.272298
    108          1           0        7.793634    0.454005   -1.891248
    109          1           0        8.935749    0.654717    0.495398
    110          1           0        8.778341   -0.657508    0.800509
    111          1           0       10.515326    0.360952   -1.818273
    112          1           0        9.396447   -2.411130   -2.105703
    113          1           0       11.195269   -2.077847   -2.127172
    114          1           0       10.587931   -2.727720   -0.682686
    115          1           0       11.161128    0.808172    0.309043
    116          1           0       11.158942   -0.750114    0.822892
    117          1           0       12.581395   -1.666042   -0.828917
    118          1           0       12.849922    0.117802   -1.675998
    119          1           0       13.821455    1.013170    0.518836
    120          1           0       14.133847   -0.700352    1.176877
    121          1           0       15.269073    0.468159   -1.392203
    122          1           0       15.592791   -2.151276   -0.079869
    123          1           0       15.163357   -2.144203   -1.658535
    124          1           0       16.690986   -1.601349   -0.931162
    125          1           0       16.005036    1.081970    0.840303
    126          1           0       16.763605   -0.362732    1.301242
    127          1           0       18.373684   -0.429674   -0.374501
    128          1           0       17.809179    1.174419   -1.220569
    129          1           0       18.538431    2.242818    1.011653
    130          1           0       18.615878    0.883080    1.675716
    131          1           0       20.666384    0.226002    0.368995
    132          1           0       20.279308    3.056237   -0.870946
    133          1           0       21.545094    1.722042   -1.361932
    134          1           0       20.016128    1.481648   -1.953572
    135          1           0       21.290004    1.179664    2.261047
    136          1           0       22.267526    2.032041    1.346283
    137          1           0       20.885000    2.793313    1.849934
 ---------------------------------------------------------------------

 SCF Done:  E(RCAM-B3LYP) =  -2932.51790305     A.U. after   18 cycles

 Excitation energies and oscillator strengths:

 Excited State   1:      Singlet-A      2.0930 eV  592.39 nm  f=0.2288  <S**2>=0.000
     240 -> 243        0.24439
     241 -> 242        0.65195
 This state for optimization and/or second-order correction.
 Total Energy, E(TD-HF/TD-KS) =  -2932.44098851
 Copying the excited state density for this state as the 1-particle RhoCI density.

 The electronic state is 1-A.
 Alpha  occ. eigenvalues --  -46.83286 -19.26273 -19.25501 -19.21934 -19.21144
 Alpha  occ. eigenvalues --  -19.19888 -14.41361 -14.39857 -14.39104 -14.38646
 Alpha  occ. eigenvalues --  -10.38800 -10.38596 -10.35476 -10.32632 -10.32332
 Alpha  occ. eigenvalues --  -10.31346 -10.30610 -10.30580 -10.29641 -10.29598
 Alpha  occ. eigenvalues --  -10.29077 -10.29018 -10.28954 -10.28871 -10.28766
 Alpha  occ. eigenvalues --  -10.28591 -10.28453 -10.28016 -10.27929 -10.27824
 Alpha  occ. eigenvalues --  -10.27642 -10.27475 -10.27346 -10.27312 -10.27295
 Alpha  occ. eigenvalues --  -10.27170 -10.27166 -10.27141 -10.27094 -10.26895
 Alpha  occ. eigenvalues --  -10.26677 -10.26670 -10.26638 -10.26600 -10.26550
 Alpha  occ. eigenvalues --  -10.26461 -10.26366 -10.26363 -10.26273 -10.26166
 Alpha  occ. eigenvalues --  -10.26051 -10.25946 -10.25592 -10.25411 -10.25326
 Alpha  occ. eigenvalues --  -10.24935 -10.24867 -10.24689 -10.24608 -10.24228
 Alpha  occ. eigenvalues --  -10.24202 -10.23835 -10.23458 -10.22576 -10.21100
 Alpha  occ. eigenvalues --   -3.12515  -1.87208  -1.86764  -1.86702  -1.18741
 Alpha  occ. eigenvalues --   -1.18299  -1.15236  -1.10821  -1.06582  -1.04791
 Alpha  occ. eigenvalues --   -1.03673  -1.02915  -1.01842  -0.91757  -0.91390
 Alpha  occ. eigenvalues --   -0.90680  -0.90536  -0.89473  -0.88980  -0.88922
 Alpha  occ. eigenvalues --   -0.88774  -0.88111  -0.87924  -0.86794  -0.86349
 Alpha  occ. eigenvalues --   -0.85767  -0.84502  -0.83918  -0.83289  -0.82193
 Alpha  occ. eigenvalues --   -0.81384  -0.80667  -0.80386  -0.80067  -0.78361
 Alpha  occ. eigenvalues --   -0.77454  -0.77226  -0.77195  -0.76114  -0.76040
 Alpha  occ. eigenvalues --   -0.74912  -0.74706  -0.74244  -0.72842  -0.72070
 Alpha  occ. eigenvalues --   -0.71506  -0.70400  -0.70061  -0.69089  -0.67941
 Alpha  occ. eigenvalues --   -0.66838  -0.66643  -0.65443  -0.64970  -0.64525
 Alpha  occ. eigenvalues --   -0.63840  -0.63402  -0.62926  -0.62879  -0.62319
 Alpha  occ. eigenvalues --   -0.61552  -0.60870  -0.60478  -0.59865  -0.59275
 Alpha  occ. eigenvalues --   -0.58840  -0.58420  -0.57115  -0.56877  -0.56216
 Alpha  occ. eigenvalues --   -0.55947  -0.55711  -0.55122  -0.54758  -0.54592
 Alpha  occ. eigenvalues --   -0.54315  -0.53987  -0.53523  -0.53470  -0.53429
 Alpha  occ. eigenvalues --   -0.53107  -0.53022  -0.52627  -0.52217  -0.52025
 Alpha  occ. eigenvalues --   -0.51795  -0.51563  -0.51234  -0.51117  -0.50840
 Alpha  occ. eigenvalues --   -0.50470  -0.50239  -0.49890  -0.49659  -0.49402
 Alpha  occ. eigenvalues --   -0.49383  -0.49139  -0.48821  -0.48673  -0.48591
 Alpha  occ. eigenvalues --   -0.48301  -0.48094  -0.47835  -0.47258  -0.46944
 Alpha  occ. eigenvalues --   -0.46884  -0.46645  -0.46426  -0.46301  -0.45821
 Alpha  occ. eigenvalues --   -0.45673  -0.45542  -0.45366  -0.45109  -0.45056
 Alpha  occ. eigenvalues --   -0.44849  -0.44455  -0.44426  -0.44214  -0.43927
 Alpha  occ. eigenvalues --   -0.43740  -0.43520  -0.43452  -0.43310  -0.43170
 Alpha  occ. eigenvalues --   -0.43095  -0.42920  -0.42452  -0.42203  -0.42108
 Alpha  occ. eigenvalues --   -0.41927  -0.41713  -0.41359  -0.41135  -0.41063
 Alpha  occ. eigenvalues --   -0.40987  -0.40719  -0.40480  -0.40237  -0.40043
 Alpha  occ. eigenvalues --   -0.39938  -0.39739  -0.39587  -0.39399  -0.39096
 Alpha  occ. eigenvalues --   -0.38798  -0.38398  -0.38267  -0.37553  -0.37449
 Alpha  occ. eigenvalues --   -0.37101  -0.37024  -0.37014  -0.36803  -0.36630
 Alpha  occ. eigenvalues --   -0.36166  -0.35966  -0.35933  -0.35585  -0.35227
 Alpha  occ. eigenvalues --   -0.35125  -0.34439  -0.34196  -0.33933  -0.33582
 Alpha  occ. eigenvalues --   -0.33064  -0.32752  -0.31841  -0.31024  -0.29753
 Alpha  occ. eigenvalues --   -0.28990  -0.28692  -0.28227  -0.27581  -0.23004
 Alpha  occ. eigenvalues --   -0.21839
 Alpha virt. eigenvalues --   -0.06873  -0.02927   0.02026   0.03664   0.05260
 Alpha virt. eigenvalues --    0.05367   0.06057   0.06304   0.06860   0.07286
 Alpha virt. eigenvalues --    0.08353   0.10411   0.10977   0.11170   0.11658

 Mulliken charges:
               1
     1  Mg   0.816374
     2  C    0.102427
     3  C   -0.223870
     4  C   -0.147750
     5  C   -0.155673
     6  N   -0.635431
     7  C    0.302642
     8  C   -0.190671
     9  C   -0.131884
    10  C    0.340042
    11  C   -0.292980
    12  C   -0.161830
    13  C   -0.288522
    14  C    0.643640
    15  O   -0.430508
    16  O   -0.503081
    17  N   -0.698053
    18  C    0.311767
    19  C    0.004444
    20  C    0.067927
    21  C    0.272090
    22  C   -0.380612
    23  C   -0.111422
    24  C   -0.246895
    25  N   -0.691478
    26  C    0.321538
    27  C    0.072843
    28  C   -0.023958
    29  C    0.285511
    30  C   -0.406509
    31  C   -0.239761
    32  C   -0.297469
    33  N   -0.749027
    34  C    0.273133
    35  C    0.051350
    36  C    0.000478
    37  C    0.280020
    38  C   -0.345408
    39  C    0.365052
    40  O   -0.394880
    41  C   -0.364072
    42  C    0.636103
    43  O   -0.507240
    44  O   -0.418511
    45  C   -0.069109
    46  C    0.007326
    47  C   -0.140271
    48  C    0.112997
    49  C   -0.354517
    50  C   -0.240355
    51  C   -0.147777
    52  C   -0.204724
    53  C   -0.037703
    54  C   -0.333769
    55  C   -0.176516
    56  C   -0.150398
    57  C   -0.170002
    58  C   -0.050444
    59  C   -0.272845
    60  C   -0.152985
    61  C   -0.200367
    62  C   -0.150493
    63  C   -0.064635
    64  C   -0.297084
    65  C   -0.336218
    66  H    0.095532
    67  H    0.076339
    68  H    0.086796
    69  H    0.109930
    70  H    0.115597
    71  H    0.102699
    72  H    0.091538
    73  H    0.127183
    74  H    0.117598
    75  H    0.115749
    76  H    0.092118
    77  H    0.148741
    78  H    0.109863
    79  H    0.119620
    80  H    0.137560
    81  H    0.106329
    82  H    0.107689
    83  H    0.098655
    84  H    0.107458
    85  H    0.116142
    86  H    0.124658
    87  H    0.108904
    88  H    0.111138
    89  H    0.115592
    90  H    0.125335
    91  H    0.085803
    92  H    0.121240
    93  H    0.114253
    94  H    0.086085
    95  H    0.151591
    96  H    0.093680
    97  H    0.125705
    98  H    0.108312
    99  H    0.133893
   100  H    0.111200
   101  H    0.106126
   102  H    0.128871
   103  H    0.098135
   104  H    0.118852
   105  H    0.092714
   106  H    0.107599
   107  H    0.101390
   108  H    0.092028
   109  H    0.072894
   110  H    0.091276
   111  H    0.076440
   112  H    0.110355
   113  H    0.081761
   114  H    0.102898
   115  H    0.069629
   116  H    0.106151
   117  H    0.080938
   118  H    0.081865
   119  H    0.078273
   120  H    0.045819
   121  H    0.087445
   122  H    0.110373
   123  H    0.081254
   124  H    0.100278
   125  H    0.088643
   126  H    0.061264
   127  H    0.099064
   128  H    0.071305
   129  H    0.098226
   130  H    0.095291
   131  H    0.083308
   132  H    0.104456
   133  H    0.080514
   134  H    0.117187
   135  H    0.100327
   136  H    0.104127
   137  H    0.092401
 Sum of Mulliken charges =   0.00000

 Dipole moment (field-independent basis, Debye):
    X=              0.5291    Y=              5.9420    Z=             -0.2895  Tot=              5.9726
 Quadrupole moment (field-independent basis, Debye-Ang):
   XX=           -321.7748   YY=           -389.4558   ZZ=           -399.1828
   XY=            -28.7209   XZ=             18.2886   YZ=              3.3954

 Normal termination of Gaussian 09 at Fri Jun 28 13:32:55 2019.
