 Gaussian 09, Revision D.01,
 Gaussian 09:  ES64L-G09RevD.01 24-Apr-2013

 -------------------------------------
 # td=(NStates=1) CAM-B3LYP/6-31G(d,p)
 -------------------------------------

 --
 TD
 --
 Symbolic Z-matrix:
 Charge =  0 Multiplicity = 1

                         Standard orientation:
 ---------------------------------------------------------------------
 Center     Atomic      Atomic             Coordinates (Angstroms)
 Number     Number       Type             X           Y           Z
 ---------------------------------------------------------------------
      1         12           0       -7.108033    0.561408    0.125023
      2          6           0       -4.950304   -1.929689    0.505756
      3          6           0       -4.678530    2.874592    1.120096
      4          6           0       -9.350194    3.214478   -0.480894
      5          6           0       -9.559026   -1.628818   -0.861191
      6          7           0       -5.052329    0.483298    0.685408
      7          6           0       -4.322430   -0.761443    0.856262
      8          6           0       -2.973533   -0.507062    1.268098
      9          6           0       -3.032270    0.913291    1.721609
     10          6           0       -4.363732    1.529719    1.105937
     11          6           0       -3.024244    1.191602    3.319796
     12          6           0       -1.985199   -0.685677    0.117727
     13          6           0       -0.485927   -0.543912    0.499953
     14          6           0        0.479209   -0.665041   -0.636967
     15          8           0        0.217389   -1.116455   -1.717005
     16          8           0        1.833505   -0.497759   -0.204257
     17          7           0       -7.001253    2.593475    0.259585
     18          6           0       -5.966257    3.316894    0.794129
     19          6           0       -6.318782    4.683870    0.889564
     20          6           0       -7.653323    4.794204    0.611503
     21          6           0       -8.072161    3.423226    0.064970
     22          6           0       -5.448283    5.822860    1.404692
     23          6           0       -8.536291    6.020473    0.443032
     24          6           0       -8.082800    7.270419    0.306036
     25          7           0       -9.147998    0.684802   -0.415676
     26          6           0       -9.844024    1.892522   -0.617609
     27          6           0      -11.192986    1.577977   -1.112348
     28          6           0      -11.256958    0.143766   -1.217281
     29          6           0       -9.941104   -0.327489   -0.924205
     30          6           0      -12.265159    2.586511   -1.265558
     31          6           0      -12.415786   -0.649919   -1.704580
     32          6           0      -12.252417   -0.814878   -3.256927
     33          7           0       -7.275975   -1.383322   -0.096789
     34          6           0       -8.293600   -2.215653   -0.545560
     35          6           0       -7.897091   -3.551068   -0.542086
     36          6           0       -6.582250   -3.573821   -0.172877
     37          6           0       -6.268818   -2.177366    0.021486
     38          6           0       -8.646452   -4.796480   -1.031568
     39          6           0       -5.439015   -4.431156    0.177377
     40          8           0       -5.283621   -5.563969    0.059757
     41          6           0       -4.202302   -3.351545    0.523197
     42          6           0       -3.518030   -3.792316    1.781238
     43          8           0       -3.678991   -3.216881    2.839017
     44          8           0       -2.853810   -4.855368    1.673518
     45          6           0       -2.304810   -5.487124    2.841784
     46          6           0        2.754267   -0.636292   -1.258579
     47          6           0        4.107502   -0.336574   -0.512643
     48          6           0        5.148734    0.397798   -0.855235
     49          6           0        5.080495    1.197294   -2.138730
     50          6           0        6.426124    0.482764   -0.238726
     51          6           0        7.706964   -0.075424   -0.976723
     52          6           0        8.930591   -0.024890   -0.152605
     53          6           0       10.220067   -0.584837   -0.844241
     54          6           0       10.035404   -2.084460   -1.256560
     55          6           0       11.428170   -0.383923    0.089056
     56          6           0       12.760467   -0.481471   -0.627290
     57          6           0       13.955181   -0.181745    0.329001
     58          6           0       15.355457   -0.145047   -0.386402
     59          6           0       15.707971   -1.584762   -0.782019
     60          6           0       16.422025    0.405793    0.613591
     61          6           0       17.758198    0.660106   -0.169491
     62          6           0       18.901224    1.295340    0.688222
     63          6           0       20.297994    1.329532    0.029157
     64          6           0       20.248477    2.204909   -1.177438
     65          6           0       21.242846    1.859529    1.069792
     66          1           0       -4.134930    3.573970    1.632884
     67          1           0       -9.992011    3.910574   -0.653422
     68          1           0      -10.466435   -2.312415   -1.159543
     69          1           0       -2.686184   -1.226441    2.086479
     70          1           0       -2.285896    1.468564    1.395990
     71          1           0       -2.018308    0.848084    3.631702
     72          1           0       -3.175446    2.180250    3.585430
     73          1           0       -3.753187    0.649986    3.847092
     74          1           0       -2.251363   -1.514549   -0.524915
     75          1           0       -2.047615    0.094090   -0.525880
     76          1           0       -0.346503    0.293038    1.196643
     77          1           0       -0.197420   -1.223527    1.223814
     78          1           0       -5.131092    6.392004    0.488440
     79          1           0       -6.097807    6.564979    1.762804
     80          1           0       -4.618368    5.435057    1.975104
     81          1           0       -9.637765    6.016202    0.423355
     82          1           0       -8.938921    8.048377    0.561902
     83          1           0       -7.046656    7.302906    0.021722
     84          1           0      -11.963640    3.219787   -2.180218
     85          1           0      -13.095407    2.238027   -1.505740
     86          1           0      -12.395326    3.236765   -0.293100
     87          1           0      -12.318360   -1.668512   -1.355161
     88          1           0      -13.460359   -0.201974   -1.532546
     89          1           0      -13.109919   -1.349447   -3.566957
     90          1           0      -12.250598    0.100497   -3.948088
     91          1           0      -11.365098   -1.251925   -3.766473
     92          1           0       -8.821298   -4.510244   -2.093302
     93          1           0       -8.006416   -5.547632   -0.821312
     94          1           0       -9.600138   -4.918724   -0.535266
     95          1           0       -3.534039   -3.519259   -0.415233
     96          1           0       -1.695887   -4.743625    3.597740
     97          1           0       -3.275267   -5.731087    3.562824
     98          1           0       -1.700142   -6.220680    2.311473
     99          1           0        2.725925   -1.554970   -1.741382
    100          1           0        2.412584    0.001273   -2.083227
    101          1           0        4.243915   -1.023711    0.290634
    102          1           0        4.066549    1.291401   -2.936048
    103          1           0        5.270224    2.320534   -2.049813
    104          1           0        5.704741    0.855467   -2.941386
    105          1           0        6.603518    1.582843   -0.060261
    106          1           0        6.222296    0.136134    0.830613
    107          1           0        7.418337   -0.957338   -1.439024
    108          1           0        7.833434    0.625257   -1.813532
    109          1           0        8.997810    0.886016    0.029238
    110          1           0        8.722848   -0.437831    0.932937
    111          1           0       10.464487    0.037691   -1.639256
    112          1           0        8.810410   -2.085421   -1.632225
    113          1           0       10.911907   -2.500033   -2.066825
    114          1           0       10.283503   -2.574975   -0.240500
    115          1           0       11.282366    0.679478    0.508637
    116          1           0       11.395484   -1.137198    0.884775
    117          1           0       12.913598   -1.632550   -0.887553
    118          1           0       12.696489    0.231360   -1.531713
    119          1           0       14.029714    0.817925    0.626998
    120          1           0       13.927913   -0.797079    1.149046
    121          1           0       15.106378    0.479444   -1.210172
    122          1           0       15.667143   -2.160943    0.101040
    123          1           0       15.246750   -2.260906   -1.600418
    124          1           0       16.723253   -1.721240   -1.127537
    125          1           0       16.216131    1.400830    1.001049
    126          1           0       16.561132   -0.295648    1.496198
    127          1           0       18.036897   -0.423406   -0.436387
    128          1           0       17.466894    1.025960   -1.047604
    129          1           0       18.565191    2.261180    1.030526
    130          1           0       18.935881    0.619290    1.504298
    131          1           0       20.541748    0.216170   -0.186408
    132          1           0       19.567697    3.153066   -0.957445
    133          1           0       21.170972    2.359676   -1.753095
    134          1           0       19.695532    1.626044   -1.971757
    135          1           0       21.367947    1.195971    1.871536
    136          1           0       22.403155    1.854315    0.765563
    137          1           0       20.910863    2.814075    1.485662
 ---------------------------------------------------------------------

 SCF Done:  E(RCAM-B3LYP) =  -2932.67144383     A.U. after   17 cycles

 Excitation energies and oscillator strengths:

 Excited State   1:      Singlet-A      2.1135 eV  586.62 nm  f=0.2396  <S**2>=0.000
     240 -> 243        0.21691
     241 -> 242        0.65606
 This state for optimization and/or second-order correction.
 Total Energy, E(TD-HF/TD-KS) =  -2932.59377249
 Copying the excited state density for this state as the 1-particle RhoCI density.

 The electronic state is 1-A.
 Alpha  occ. eigenvalues --  -46.83790 -19.26851 -19.25031 -19.22252 -19.21107
 Alpha  occ. eigenvalues --  -19.18660 -14.41114 -14.39526 -14.39178 -14.38545
 Alpha  occ. eigenvalues --  -10.39789 -10.37835 -10.35195 -10.34061 -10.30941
 Alpha  occ. eigenvalues --  -10.30573 -10.30315 -10.30175 -10.29813 -10.29085
 Alpha  occ. eigenvalues --  -10.28446 -10.28228 -10.28134 -10.28099 -10.28089
 Alpha  occ. eigenvalues --  -10.27707 -10.27678 -10.27520 -10.27488 -10.27377
 Alpha  occ. eigenvalues --  -10.27042 -10.26906 -10.26873 -10.26801 -10.26628
 Alpha  occ. eigenvalues --  -10.26582 -10.26570 -10.26475 -10.26433 -10.26381
 Alpha  occ. eigenvalues --  -10.26289 -10.26273 -10.26204 -10.25992 -10.25961
 Alpha  occ. eigenvalues --  -10.25679 -10.25627 -10.25564 -10.25466 -10.25459
 Alpha  occ. eigenvalues --  -10.25438 -10.25375 -10.25323 -10.25155 -10.25125
 Alpha  occ. eigenvalues --  -10.25013 -10.24939 -10.24876 -10.24577 -10.24273
 Alpha  occ. eigenvalues --  -10.24264 -10.24179 -10.24071 -10.23968 -10.23360
 Alpha  occ. eigenvalues --   -3.12879  -1.87590  -1.87134  -1.87040  -1.21136
 Alpha  occ. eigenvalues --   -1.17330  -1.15259  -1.09760  -1.08219  -1.05425
 Alpha  occ. eigenvalues --   -1.03761  -1.02641  -1.00881  -0.91845  -0.91358
 Alpha  occ. eigenvalues --   -0.90452  -0.90117  -0.89638  -0.89134  -0.88639
 Alpha  occ. eigenvalues --   -0.88563  -0.87865  -0.87740  -0.87152  -0.85888
 Alpha  occ. eigenvalues --   -0.85137  -0.84554  -0.83701  -0.83019  -0.82637
 Alpha  occ. eigenvalues --   -0.81789  -0.81461  -0.80421  -0.79141  -0.78220
 Alpha  occ. eigenvalues --   -0.77873  -0.77191  -0.76036  -0.75796  -0.75500
 Alpha  occ. eigenvalues --   -0.75473  -0.74915  -0.73881  -0.73793  -0.72859
 Alpha  occ. eigenvalues --   -0.71819  -0.71153  -0.69916  -0.69502  -0.68232
 Alpha  occ. eigenvalues --   -0.67312  -0.66361  -0.65285  -0.64871  -0.64698
 Alpha  occ. eigenvalues --   -0.63959  -0.63783  -0.63781  -0.62838  -0.62202
 Alpha  occ. eigenvalues --   -0.62048  -0.61062  -0.60511  -0.60174  -0.59278
 Alpha  occ. eigenvalues --   -0.58198  -0.58178  -0.57425  -0.57106  -0.56458
 Alpha  occ. eigenvalues --   -0.56389  -0.55421  -0.55236  -0.55220  -0.54927
 Alpha  occ. eigenvalues --   -0.54734  -0.54423  -0.53649  -0.53465  -0.53277
 Alpha  occ. eigenvalues --   -0.53229  -0.52761  -0.52408  -0.52237  -0.52175
 Alpha  occ. eigenvalues --   -0.51184  -0.50942  -0.50859  -0.50670  -0.50589
 Alpha  occ. eigenvalues --   -0.50414  -0.50211  -0.49823  -0.49514  -0.49434
 Alpha  occ. eigenvalues --   -0.49241  -0.49181  -0.48825  -0.48711  -0.48455
 Alpha  occ. eigenvalues --   -0.48149  -0.48042  -0.47805  -0.47426  -0.47319
 Alpha  occ. eigenvalues --   -0.46998  -0.46761  -0.46669  -0.46463  -0.46247
 Alpha  occ. eigenvalues --   -0.46037  -0.46029  -0.45767  -0.45498  -0.45431
 Alpha  occ. eigenvalues --   -0.45158  -0.44984  -0.44808  -0.44503  -0.43950
 Alpha  occ. eigenvalues --   -0.43778  -0.43626  -0.43357  -0.43268  -0.43095
 Alpha  occ. eigenvalues --   -0.42902  -0.42489  -0.42270  -0.42088  -0.41904
 Alpha  occ. eigenvalues --   -0.41782  -0.41527  -0.41521  -0.41410  -0.41273
 Alpha  occ. eigenvalues --   -0.41112  -0.40715  -0.40252  -0.40238  -0.40106
 Alpha  occ. eigenvalues --   -0.40024  -0.39931  -0.39521  -0.39269  -0.39084
 Alpha  occ. eigenvalues --   -0.38811  -0.38715  -0.38684  -0.38546  -0.38417
 Alpha  occ. eigenvalues --   -0.38132  -0.37518  -0.37264  -0.37065  -0.36982
 Alpha  occ. eigenvalues --   -0.36753  -0.36544  -0.36155  -0.35385  -0.35262
 Alpha  occ. eigenvalues --   -0.35156  -0.34998  -0.34629  -0.34496  -0.32912
 Alpha  occ. eigenvalues --   -0.32772  -0.32577  -0.31641  -0.31114  -0.29892
 Alpha  occ. eigenvalues --   -0.29730  -0.29341  -0.27973  -0.26610  -0.23257
 Alpha  occ. eigenvalues --   -0.21079
 Alpha virt. eigenvalues --   -0.06102  -0.02551   0.02286   0.04675   0.05367
 Alpha virt. eigenvalues --    0.06354   0.06954   0.06978   0.07061   0.08105
 Alpha virt. eigenvalues --    0.08789   0.11134   0.11224   0.11434   0.11946

 Mulliken charges:
               1
     1  Mg   0.809217
     2  C    0.050094
     3  C   -0.172375
     4  C   -0.119164
     5  C   -0.183537
     6  N   -0.651798
     7  C    0.289100
     8  C   -0.155868
     9  C   -0.149057
    10  C    0.356690
    11  C   -0.322550
    12  C   -0.177564
    13  C   -0.287279
    14  C    0.611818
    15  O   -0.444183
    16  O   -0.503381
    17  N   -0.724710
    18  C    0.339572
    19  C    0.003088
    20  C   -0.021288
    21  C    0.314889
    22  C   -0.370975
    23  C   -0.078071
    24  C   -0.251083
    25  N   -0.684414
    26  C    0.288214
    27  C   -0.025953
    28  C    0.050479
    29  C    0.294672
    30  C   -0.341970
    31  C   -0.246264
    32  C   -0.322691
    33  N   -0.709669
    34  C    0.242597
    35  C   -0.026176
    36  C    0.002853
    37  C    0.302503
    38  C   -0.343348
    39  C    0.354203
    40  O   -0.397371
    41  C   -0.337190
    42  C    0.604724
    43  O   -0.508248
    44  O   -0.397893
    45  C   -0.083138
    46  C    0.030771
    47  C   -0.144206
    48  C    0.154896
    49  C   -0.368205
    50  C   -0.249630
    51  C   -0.193834
    52  C   -0.143498
    53  C   -0.060713
    54  C   -0.278260
    55  C   -0.169385
    56  C   -0.177368
    57  C   -0.166396
    58  C   -0.073779
    59  C   -0.319868
    60  C   -0.189685
    61  C   -0.188250
    62  C   -0.172738
    63  C   -0.049696
    64  C   -0.295052
    65  C   -0.295397
    66  H    0.069314
    67  H    0.066921
    68  H    0.081312
    69  H    0.141010
    70  H    0.100817
    71  H    0.100874
    72  H    0.112832
    73  H    0.133013
    74  H    0.124517
    75  H    0.124474
    76  H    0.131399
    77  H    0.151804
    78  H    0.124300
    79  H    0.140263
    80  H    0.116464
    81  H    0.096373
    82  H    0.107848
    83  H    0.102992
    84  H    0.108729
    85  H    0.112858
    86  H    0.106953
    87  H    0.115133
    88  H    0.112956
    89  H    0.106002
    90  H    0.096581
    91  H    0.114936
    92  H    0.127909
    93  H    0.144967
    94  H    0.118907
    95  H    0.146713
    96  H    0.120992
    97  H    0.129929
    98  H    0.142033
    99  H    0.128722
   100  H    0.111837
   101  H    0.086402
   102  H    0.064274
   103  H    0.103271
   104  H    0.127190
   105  H    0.097163
   106  H    0.091200
   107  H    0.110187
   108  H    0.101364
   109  H    0.104759
   110  H    0.072036
   111  H    0.087770
   112  H    0.079894
   113  H    0.083835
   114  H    0.098419
   115  H    0.076237
   116  H    0.086548
   117  H    0.084858
   118  H    0.079540
   119  H    0.090566
   120  H    0.092274
   121  H    0.091641
   122  H    0.105223
   123  H    0.092947
   124  H    0.096748
   125  H    0.092954
   126  H    0.086636
   127  H    0.078440
   128  H    0.104598
   129  H    0.089789
   130  H    0.097936
   131  H    0.078827
   132  H    0.088073
   133  H    0.103420
   134  H    0.096423
   135  H    0.105838
   136  H    0.071740
   137  H    0.101083
 Sum of Mulliken charges =   0.00000

 Dipole moment (field-independent basis, Debye):
    X=              0.7896    Y=              3.8520    Z=              0.6998  Tot=              3.9939
 Quadrupole moment (field-independent basis, Debye-Ang):
   XX=           -340.0375   YY=           -388.6297   ZZ=           -395.4085
   XY=            -23.5303   XZ=             11.7274   YZ=             -2.2141

 Normal termination of Gaussian 09 at Thu Jun 27 04:00:01 2019.
