 Gaussian 09, Revision D.01,
 Gaussian 09:  ES64L-G09RevD.01 24-Apr-2013

 -------------------------------------
 # td=(NStates=1) CAM-B3LYP/6-31G(d,p)
 -------------------------------------

 --
 TD
 --
 Symbolic Z-matrix:
 Charge =  0 Multiplicity = 1

                         Standard orientation:
 ---------------------------------------------------------------------
 Center     Atomic      Atomic             Coordinates (Angstroms)
 Number     Number       Type             X           Y           Z
 ---------------------------------------------------------------------
      1         12           0       -7.183375    0.564040    0.091260
      2          6           0       -4.805021   -1.863635    0.488669
      3          6           0       -4.904102    2.874723    1.106481
      4          6           0       -9.461042    3.081846   -0.411378
      5          6           0       -9.599616   -1.756720   -0.826780
      6          7           0       -5.016130    0.470472    0.612305
      7          6           0       -4.377068   -0.689259    0.833690
      8          6           0       -2.851105   -0.411994    1.165563
      9          6           0       -2.997629    1.103731    1.595711
     10          6           0       -4.429772    1.519441    1.099358
     11          6           0       -2.913944    1.420564    3.252320
     12          6           0       -1.996034   -0.455283   -0.023157
     13          6           0       -0.458432   -0.319716    0.471713
     14          6           0        0.449884   -0.638367   -0.647009
     15          8           0        0.227342   -0.989897   -1.730490
     16          8           0        1.786363   -0.441040   -0.218642
     17          7           0       -7.182158    2.554457    0.271400
     18          6           0       -6.120656    3.286872    0.850919
     19          6           0       -6.500980    4.738271    0.864039
     20          6           0       -7.771134    4.856002    0.415980
     21          6           0       -8.251585    3.430712    0.014687
     22          6           0       -5.539874    5.836529    1.412991
     23          6           0       -8.666570    6.085677    0.297161
     24          6           0       -8.206973    7.388199    0.138381
     25          7           0       -9.162641    0.670060   -0.464781
     26          6           0       -9.908155    1.788321   -0.624149
     27          6           0      -11.228337    1.387509   -1.146056
     28          6           0      -11.226810    0.006229   -1.231210
     29          6           0       -9.928067   -0.402562   -0.879956
     30          6           0      -12.375868    2.309286   -1.361683
     31          6           0      -12.396431   -0.849350   -1.703306
     32          6           0      -12.474641   -0.848512   -3.237884
     33          7           0       -7.255300   -1.454335   -0.187599
     34          6           0       -8.286161   -2.283642   -0.584986
     35          6           0       -7.783592   -3.680749   -0.565859
     36          6           0       -6.540141   -3.509624   -0.174269
     37          6           0       -6.189210   -2.144094    0.046070
     38          6           0       -8.532317   -4.854068   -1.089606
     39          6           0       -5.244531   -4.287229    0.247310
     40          8           0       -5.075220   -5.491653    0.040446
     41          6           0       -4.213336   -3.251496    0.600230
     42          6           0       -3.613553   -3.590867    2.030753
     43          8           0       -3.833642   -3.080838    3.131814
     44          8           0       -2.755146   -4.639103    1.885131
     45          6           0       -2.260456   -5.109523    3.186852
     46          6           0        2.863542   -0.656074   -1.200351
     47          6           0        4.153461   -0.476791   -0.458730
     48          6           0        5.200174    0.154982   -0.984695
     49          6           0        5.275438    0.949519   -2.274533
     50          6           0        6.474345    0.172414   -0.146316
     51          6           0        7.735094   -0.410751   -0.864380
     52          6           0        9.003531   -0.278053   -0.070593
     53          6           0       10.279255   -0.746490   -0.727237
     54          6           0       10.181935   -2.166113   -1.183420
     55          6           0       11.557428   -0.350049    0.146913
     56          6           0       12.835560   -0.514013   -0.658360
     57          6           0       14.060111   -0.127410    0.174059
     58          6           0       15.316171   -0.286010   -0.494067
     59          6           0       15.730236   -1.758990   -0.784564
     60          6           0       16.450551    0.469614    0.334793
     61          6           0       17.824840    0.633423   -0.379099
     62          6           0       18.738410    1.428868    0.656662
     63          6           0       20.239923    1.551641    0.196681
     64          6           0       20.354573    2.247344   -1.137583
     65          6           0       21.009561    2.170553    1.275305
     66          1           0       -4.202087    3.743815    1.331504
     67          1           0      -10.354810    3.981307   -0.464451
     68          1           0      -10.265066   -2.576595   -1.022890
     69          1           0       -2.481823   -1.031756    1.915580
     70          1           0       -2.316135    1.726900    0.981777
     71          1           0       -1.811832    1.183213    3.533907
     72          1           0       -2.872905    2.466769    3.360237
     73          1           0       -3.549320    0.693818    3.915037
     74          1           0       -2.128595   -1.372407   -0.464153
     75          1           0       -2.110105    0.261800   -0.973039
     76          1           0       -0.352859    0.590530    1.239599
     77          1           0       -0.270927   -1.237093    1.087184
     78          1           0       -4.783984    6.417184    0.757944
     79          1           0       -6.223544    6.577002    1.768664
     80          1           0       -4.972105    5.398652    2.254323
     81          1           0       -9.685264    5.956309    0.245660
     82          1           0       -9.091979    8.114049    0.141976
     83          1           0       -7.116520    7.607971   -0.010832
     84          1           0      -12.233560    3.119497   -2.173146
     85          1           0      -13.251175    1.685398   -1.603095
     86          1           0      -12.544276    2.905486   -0.494240
     87          1           0      -12.009458   -1.934290   -1.184917
     88          1           0      -13.366654   -0.533738   -1.117636
     89          1           0      -13.478900   -1.466657   -3.614742
     90          1           0      -12.696227    0.098126   -3.647089
     91          1           0      -11.602131   -1.316657   -4.001749
     92          1           0       -9.020607   -4.776248   -2.197422
     93          1           0       -7.823594   -5.841141   -1.033188
     94          1           0       -9.296474   -5.116097   -0.454366
     95          1           0       -3.492859   -3.348213   -0.119218
     96          1           0       -1.679687   -4.356024    3.686764
     97          1           0       -3.014828   -5.225931    4.055639
     98          1           0       -1.510944   -6.063107    3.182350
     99          1           0        2.632852   -1.626063   -1.418620
    100          1           0        2.491739   -0.205230   -2.158184
    101          1           0        4.330737   -0.891235    0.499463
    102          1           0        4.147527    0.943494   -2.750037
    103          1           0        5.285169    2.042887   -1.755238
    104          1           0        6.132832    0.641663   -2.767999
    105          1           0        6.803165    1.138113    0.186304
    106          1           0        6.410497   -0.354336    0.936625
    107          1           0        7.668616   -1.450060   -1.293078
    108          1           0        7.805935    0.256281   -1.803063
    109          1           0        9.429031    0.803319    0.442992
    110          1           0        8.770238   -1.257797    0.759842
    111          1           0       10.393706   -0.090274   -1.579083
    112          1           0        9.293281   -2.198142   -1.792644
    113          1           0       11.000868   -2.367592   -1.864893
    114          1           0       10.166404   -2.862973   -0.324889
    115          1           0       11.581101    0.567896    0.494693
    116          1           0       11.806294   -0.886566    0.946718
    117          1           0       13.007416   -1.717281   -1.062407
    118          1           0       12.839221   -0.066793   -1.636977
    119          1           0       14.016279    0.958548    0.365297
    120          1           0       14.001270   -0.711036    1.247934
    121          1           0       15.344643    0.409893   -1.356576
    122          1           0       15.911201   -2.322413    0.150990
    123          1           0       15.055189   -2.489383   -1.349642
    124          1           0       16.682677   -1.570512   -1.595209
    125          1           0       16.069308    1.223696    0.691179
    126          1           0       16.595381   -0.324032    0.966823
    127          1           0       18.112242   -0.271284   -0.748242
    128          1           0       17.453380    1.238798   -1.402129
    129          1           0       18.269987    2.469541    0.711586
    130          1           0       18.445348    0.879890    1.686349
    131          1           0       20.598973    0.709365   -0.194595
    132          1           0       19.950873    3.337483   -1.040866
    133          1           0       21.369784    2.401041   -1.621582
    134          1           0       19.520015    1.806465   -1.965975
    135          1           0       21.175193    1.770827    2.298087
    136          1           0       22.065500    2.243038    0.928992
    137          1           0       20.608597    3.127074    1.513187
 ---------------------------------------------------------------------

 SCF Done:  E(RCAM-B3LYP) =  -2932.54361470     A.U. after   17 cycles

 Excitation energies and oscillator strengths:

 Excited State   1:      Singlet-A      2.2430 eV  552.77 nm  f=0.2360  <S**2>=0.000
     240 -> 243        0.23928
     241 -> 242        0.64677
 This state for optimization and/or second-order correction.
 Total Energy, E(TD-HF/TD-KS) =  -2932.46118727
 Copying the excited state density for this state as the 1-particle RhoCI density.

 The electronic state is 1-A.
 Alpha  occ. eigenvalues --  -46.84447 -19.27900 -19.23041 -19.22319 -19.21934
 Alpha  occ. eigenvalues --  -19.20570 -14.42102 -14.39319 -14.39304 -14.38768
 Alpha  occ. eigenvalues --  -10.41042 -10.38980 -10.35505 -10.32791 -10.32405
 Alpha  occ. eigenvalues --  -10.30435 -10.30261 -10.30147 -10.29766 -10.29420
 Alpha  occ. eigenvalues --  -10.29269 -10.29170 -10.29088 -10.28715 -10.28430
 Alpha  occ. eigenvalues --  -10.28206 -10.28123 -10.28117 -10.28052 -10.28037
 Alpha  occ. eigenvalues --  -10.28030 -10.28009 -10.27852 -10.27729 -10.27711
 Alpha  occ. eigenvalues --  -10.27689 -10.27456 -10.27347 -10.27305 -10.27281
 Alpha  occ. eigenvalues --  -10.27232 -10.27077 -10.26893 -10.26855 -10.26845
 Alpha  occ. eigenvalues --  -10.26819 -10.26759 -10.26741 -10.26555 -10.26054
 Alpha  occ. eigenvalues --  -10.25780 -10.25765 -10.25674 -10.25582 -10.25550
 Alpha  occ. eigenvalues --  -10.25363 -10.25273 -10.25199 -10.25091 -10.25038
 Alpha  occ. eigenvalues --  -10.24182 -10.24128 -10.23970 -10.22954 -10.22185
 Alpha  occ. eigenvalues --   -3.13455  -1.88167  -1.87686  -1.87626  -1.18247
 Alpha  occ. eigenvalues --   -1.18161  -1.10117  -1.08945  -1.08454  -1.06136
 Alpha  occ. eigenvalues --   -1.04556  -1.02772  -1.01007  -0.93245  -0.91634
 Alpha  occ. eigenvalues --   -0.90973  -0.90569  -0.89817  -0.89510  -0.89168
 Alpha  occ. eigenvalues --   -0.88262  -0.87654  -0.87175  -0.86806  -0.85707
 Alpha  occ. eigenvalues --   -0.84808  -0.84473  -0.82915  -0.82848  -0.82107
 Alpha  occ. eigenvalues --   -0.81536  -0.81138  -0.80430  -0.79775  -0.78040
 Alpha  occ. eigenvalues --   -0.77592  -0.77081  -0.76285  -0.75769  -0.75617
 Alpha  occ. eigenvalues --   -0.75340  -0.74762  -0.74196  -0.73208  -0.72364
 Alpha  occ. eigenvalues --   -0.71835  -0.70713  -0.68970  -0.68750  -0.67645
 Alpha  occ. eigenvalues --   -0.67121  -0.66834  -0.66150  -0.65189  -0.64655
 Alpha  occ. eigenvalues --   -0.64516  -0.64023  -0.62713  -0.62611  -0.62145
 Alpha  occ. eigenvalues --   -0.61075  -0.60817  -0.59682  -0.59394  -0.58830
 Alpha  occ. eigenvalues --   -0.58565  -0.58330  -0.58037  -0.57464  -0.56426
 Alpha  occ. eigenvalues --   -0.56045  -0.55743  -0.55514  -0.55011  -0.54446
 Alpha  occ. eigenvalues --   -0.54385  -0.54209  -0.53877  -0.53529  -0.53220
 Alpha  occ. eigenvalues --   -0.52913  -0.52805  -0.52638  -0.51888  -0.51547
 Alpha  occ. eigenvalues --   -0.50950  -0.50917  -0.50711  -0.50612  -0.50406
 Alpha  occ. eigenvalues --   -0.50083  -0.49832  -0.49651  -0.49584  -0.49285
 Alpha  occ. eigenvalues --   -0.49074  -0.48858  -0.48577  -0.48343  -0.48133
 Alpha  occ. eigenvalues --   -0.48052  -0.47955  -0.47643  -0.47609  -0.47230
 Alpha  occ. eigenvalues --   -0.46674  -0.46589  -0.46451  -0.46033  -0.45842
 Alpha  occ. eigenvalues --   -0.45647  -0.45377  -0.45314  -0.45196  -0.44845
 Alpha  occ. eigenvalues --   -0.44806  -0.44515  -0.44389  -0.44214  -0.43972
 Alpha  occ. eigenvalues --   -0.43801  -0.43671  -0.43657  -0.43448  -0.43153
 Alpha  occ. eigenvalues --   -0.43064  -0.43038  -0.42846  -0.42594  -0.42487
 Alpha  occ. eigenvalues --   -0.42390  -0.42292  -0.42089  -0.41761  -0.41451
 Alpha  occ. eigenvalues --   -0.41149  -0.40925  -0.40880  -0.40568  -0.40557
 Alpha  occ. eigenvalues --   -0.40123  -0.39951  -0.39812  -0.39527  -0.38766
 Alpha  occ. eigenvalues --   -0.38554  -0.38387  -0.37831  -0.37407  -0.37053
 Alpha  occ. eigenvalues --   -0.36945  -0.36838  -0.36675  -0.36619  -0.36345
 Alpha  occ. eigenvalues --   -0.35920  -0.35900  -0.35689  -0.35374  -0.35241
 Alpha  occ. eigenvalues --   -0.35107  -0.34822  -0.34711  -0.34301  -0.34019
 Alpha  occ. eigenvalues --   -0.32700  -0.32341  -0.32330  -0.31695  -0.30108
 Alpha  occ. eigenvalues --   -0.29485  -0.29301  -0.28280  -0.27578  -0.24201
 Alpha  occ. eigenvalues --   -0.20873
 Alpha virt. eigenvalues --   -0.05099  -0.02892   0.01682   0.03439   0.05475
 Alpha virt. eigenvalues --    0.05987   0.06480   0.06769   0.07141   0.07242
 Alpha virt. eigenvalues --    0.08704   0.10493   0.11080   0.11341   0.11458

 Mulliken charges:
               1
     1  Mg   0.813780
     2  C    0.103943
     3  C   -0.224721
     4  C   -0.203787
     5  C   -0.145891
     6  N   -0.609593
     7  C    0.258213
     8  C   -0.135913
     9  C   -0.174232
    10  C    0.359556
    11  C   -0.322600
    12  C   -0.172352
    13  C   -0.279481
    14  C    0.609191
    15  O   -0.436805
    16  O   -0.545668
    17  N   -0.742668
    18  C    0.356079
    19  C    0.002749
    20  C    0.006230
    21  C    0.332685
    22  C   -0.377466
    23  C   -0.072616
    24  C   -0.242435
    25  N   -0.704068
    26  C    0.322205
    27  C    0.002527
    28  C    0.039285
    29  C    0.297119
    30  C   -0.377494
    31  C   -0.220038
    32  C   -0.288214
    33  N   -0.720098
    34  C    0.185612
    35  C    0.016406
    36  C   -0.029233
    37  C    0.307883
    38  C   -0.384650
    39  C    0.387339
    40  O   -0.450321
    41  C   -0.289268
    42  C    0.611542
    43  O   -0.481496
    44  O   -0.435261
    45  C   -0.100280
    46  C    0.014691
    47  C   -0.126169
    48  C    0.119629
    49  C   -0.335602
    50  C   -0.224998
    51  C   -0.179278
    52  C   -0.138053
    53  C   -0.056343
    54  C   -0.308381
    55  C   -0.161371
    56  C   -0.174957
    57  C   -0.153290
    58  C   -0.084951
    59  C   -0.302557
    60  C   -0.160866
    61  C   -0.178785
    62  C   -0.165914
    63  C   -0.037927
    64  C   -0.314353
    65  C   -0.307614
    66  H    0.089644
    67  H    0.078914
    68  H    0.100478
    69  H    0.118108
    70  H    0.110679
    71  H    0.091628
    72  H    0.127087
    73  H    0.135848
    74  H    0.121376
    75  H    0.112873
    76  H    0.142944
    77  H    0.144528
    78  H    0.117253
    79  H    0.131242
    80  H    0.118131
    81  H    0.096857
    82  H    0.106459
    83  H    0.117441
    84  H    0.105357
    85  H    0.105176
    86  H    0.122505
    87  H    0.074920
    88  H    0.112284
    89  H    0.070489
    90  H    0.130565
    91  H    0.099428
    92  H    0.110643
    93  H    0.128045
    94  H    0.135473
    95  H    0.181514
    96  H    0.130970
    97  H    0.136499
    98  H    0.117454
    99  H    0.127233
   100  H    0.124073
   101  H    0.100133
   102  H    0.101771
   103  H    0.110983
   104  H    0.132957
   105  H    0.110570
   106  H    0.077982
   107  H    0.108636
   108  H    0.071498
   109  H    0.066211
   110  H    0.037943
   111  H    0.085598
   112  H    0.101986
   113  H    0.105966
   114  H    0.106114
   115  H    0.095136
   116  H    0.102309
   117  H    0.043685
   118  H    0.093262
   119  H    0.085022
   120  H    0.059907
   121  H    0.082532
   122  H    0.106642
   123  H    0.102337
   124  H    0.073598
   125  H    0.084379
   126  H    0.099116
   127  H    0.109147
   128  H    0.048963
   129  H    0.092598
   130  H    0.087865
   131  H    0.109139
   132  H    0.077097
   133  H    0.105177
   134  H    0.086608
   135  H    0.101643
   136  H    0.088013
   137  H    0.104755
 Sum of Mulliken charges =   0.00000

 Dipole moment (field-independent basis, Debye):
    X=              2.3046    Y=              4.9282    Z=              1.4771  Tot=              5.6374
 Quadrupole moment (field-independent basis, Debye-Ang):
   XX=           -357.2055   YY=           -394.0546   ZZ=           -397.0840
   XY=            -25.1379   XZ=              4.7864   YZ=             -2.6450

 Normal termination of Gaussian 09 at Mon Jul  1 04:32:01 2019.
