 Gaussian 09, Revision D.01,
 Gaussian 09:  ES64L-G09RevD.01 24-Apr-2013

 -------------------------------------
 # td=(NStates=1) CAM-B3LYP/6-31G(d,p)
 -------------------------------------

 --
 TD
 --
 Symbolic Z-matrix:
 Charge =  0 Multiplicity = 1

                         Standard orientation:
 ---------------------------------------------------------------------
 Center     Atomic      Atomic             Coordinates (Angstroms)
 Number     Number       Type             X           Y           Z
 ---------------------------------------------------------------------
      1         12           0       -7.109640    0.602670    0.173365
      2          6           0       -4.888066   -1.924763    0.457174
      3          6           0       -4.695360    2.818842    1.088051
      4          6           0       -9.349189    3.018702   -0.374002
      5          6           0       -9.508323   -1.831003   -0.947292
      6          7           0       -5.123951    0.410811    0.734073
      7          6           0       -4.389016   -0.739938    0.830191
      8          6           0       -2.911136   -0.399311    1.249267
      9          6           0       -3.031632    1.091125    1.691258
     10          6           0       -4.292230    1.543644    1.070543
     11          6           0       -3.045731    1.123642    3.241051
     12          6           0       -1.870917   -0.432790   -0.007631
     13          6           0       -0.440365   -0.323467    0.455277
     14          6           0        0.514690   -0.711681   -0.663202
     15          8           0        0.210466   -1.138983   -1.812836
     16          8           0        1.745422   -0.398573   -0.331502
     17          7           0       -7.097135    2.599256    0.430112
     18          6           0       -6.011375    3.406515    0.788801
     19          6           0       -6.409580    4.791745    0.839969
     20          6           0       -7.713378    4.817489    0.403717
     21          6           0       -8.170288    3.451680    0.148314
     22          6           0       -5.618965    5.786981    1.418233
     23          6           0       -8.585531    5.934543    0.345981
     24          6           0       -8.198819    7.298300    0.368453
     25          7           0       -9.110571    0.658721   -0.569492
     26          6           0       -9.898513    1.786302   -0.716748
     27          6           0      -11.179569    1.411760   -1.154102
     28          6           0      -11.195516    0.061200   -1.267486
     29          6           0       -9.906708   -0.420275   -0.892716
     30          6           0      -12.237577    2.511577   -1.311376
     31          6           0      -12.354536   -0.811418   -1.750861
     32          6           0      -12.341647   -1.153256   -3.327513
     33          7           0       -7.310159   -1.426149   -0.097864
     34          6           0       -8.323079   -2.324583   -0.479610
     35          6           0       -7.763009   -3.650136   -0.392096
     36          6           0       -6.506942   -3.594360    0.043996
     37          6           0       -6.188861   -2.235954    0.096315
     38          6           0       -8.578989   -4.868823   -0.711847
     39          6           0       -5.264870   -4.358180    0.315273
     40          8           0       -5.209416   -5.592462    0.323012
     41          6           0       -4.165416   -3.282569    0.605479
     42          6           0       -3.495340   -3.600252    1.937573
     43          8           0       -3.814848   -3.102169    2.993201
     44          8           0       -2.614632   -4.602125    1.740282
     45          6           0       -2.058884   -5.180479    2.906469
     46          6           0        2.769299   -0.605467   -1.300773
     47          6           0        4.060838   -0.379415   -0.645610
     48          6           0        5.077676    0.423215   -1.153874
     49          6           0        5.001850    1.257014   -2.350953
     50          6           0        6.314991    0.491418   -0.417200
     51          6           0        7.596216   -0.196202   -1.022362
     52          6           0        8.805584   -0.108014   -0.207195
     53          6           0       10.153252   -0.535301   -0.943435
     54          6           0       10.048562   -2.040097   -1.355880
     55          6           0       11.312007   -0.266823   -0.088793
     56          6           0       12.706442   -0.362510   -0.736930
     57          6           0       13.830742    0.074917    0.171464
     58          6           0       15.290432   -0.136947   -0.501604
     59          6           0       15.632370   -1.593453   -0.920426
     60          6           0       16.404730    0.444944    0.448427
     61          6           0       17.798699    0.509965   -0.103544
     62          6           0       18.936106    0.960483    0.891436
     63          6           0       20.406927    1.118356    0.344258
     64          6           0       20.443039    2.025047   -0.922303
     65          6           0       21.244551    1.832612    1.403335
     66          1           0       -4.000572    3.682771    1.116554
     67          1           0      -10.062067    3.768748   -0.740479
     68          1           0      -10.227888   -2.470088   -1.360533
     69          1           0       -2.657914   -0.890563    2.092078
     70          1           0       -2.185564    1.571567    1.195332
     71          1           0       -1.850203    0.965509    3.541051
     72          1           0       -3.392384    2.255855    3.665099
     73          1           0       -3.709049    0.277538    3.670370
     74          1           0       -2.127636   -1.432572   -0.348475
     75          1           0       -2.139307    0.269343   -0.783054
     76          1           0       -0.295765    0.808870    0.798031
     77          1           0       -0.326593   -0.899443    1.297876
     78          1           0       -4.627641    6.035702    0.867610
     79          1           0       -6.034970    6.950191    1.564705
     80          1           0       -5.228655    5.623962    2.568387
     81          1           0       -9.609878    5.768758    0.563533
     82          1           0       -8.757817    8.312559    0.296541
     83          1           0       -7.185827    7.494451    0.317893
     84          1           0      -12.148747    3.037739   -2.485618
     85          1           0      -13.597647    2.342480   -1.389380
     86          1           0      -12.092376    3.220108   -0.453192
     87          1           0      -12.252464   -1.693810   -1.066032
     88          1           0      -13.232250   -0.234144   -1.646702
     89          1           0      -13.178452   -1.906916   -3.361262
     90          1           0      -12.486927   -0.240932   -3.771105
     91          1           0      -11.305885   -1.546915   -3.659354
     92          1           0       -8.974858   -4.940337   -1.706334
     93          1           0       -7.848015   -5.739238   -0.979064
     94          1           0       -9.399515   -4.882036    0.106966
     95          1           0       -3.476267   -3.576823   -0.109697
     96          1           0       -1.600011   -4.465746    3.649768
     97          1           0       -2.887880   -5.954170    3.466586
     98          1           0       -1.236588   -5.830388    2.536056
     99          1           0        2.540404   -1.612864   -1.684268
    100          1           0        2.598081    0.124111   -2.189753
    101          1           0        4.205119   -0.885090    0.248405
    102          1           0        3.977599    1.448624   -2.915160
    103          1           0        5.255749    2.430650   -2.190067
    104          1           0        5.839164    0.986183   -3.001664
    105          1           0        6.674985    1.701863   -0.092320
    106          1           0        6.227189    0.165535    0.636510
    107          1           0        7.250081   -1.246302   -1.288189
    108          1           0        7.881586    0.370086   -2.056118
    109          1           0        9.061284    0.965185   -0.055701
    110          1           0        8.845395   -0.761695    0.609802
    111          1           0       10.099652    0.117710   -1.915233
    112          1           0        9.198195   -2.264630   -1.884406
    113          1           0       11.108207   -2.182588   -1.889757
    114          1           0        9.980945   -2.609264   -0.553582
    115          1           0       11.285341    0.868039    0.080071
    116          1           0       11.149538   -0.650738    0.991351
    117          1           0       12.848151   -1.405714   -0.880671
    118          1           0       12.811198    0.235742   -1.790338
    119          1           0       13.579315    1.073679    0.372344
    120          1           0       13.744736   -0.413508    1.130053
    121          1           0       15.132138    0.301271   -1.428932
    122          1           0       15.661578   -2.444787   -0.261929
    123          1           0       15.038200   -1.781266   -1.874371
    124          1           0       16.753718   -1.528799   -1.094013
    125          1           0       16.192898    1.526230    0.682102
    126          1           0       16.193263   -0.109488    1.466002
    127          1           0       18.084050   -0.464509   -0.487891
    128          1           0       17.694662    1.164708   -1.032662
    129          1           0       18.729039    1.922501    0.904708
    130          1           0       18.792879    0.609072    1.889705
    131          1           0       20.613837    0.134456    0.107653
    132          1           0       20.127208    3.116574   -0.722657
    133          1           0       21.486147    2.017018   -1.211947
    134          1           0       20.074239    1.593260   -1.828507
    135          1           0       21.377499    1.010392    2.344547
    136          1           0       22.278413    2.276646    1.180837
    137          1           0       20.460517    2.716345    2.018816
 ---------------------------------------------------------------------

 SCF Done:  E(RCAM-B3LYP) =  -2932.63456442     A.U. after   15 cycles

 Excitation energies and oscillator strengths:

 Excited State   1:      Singlet-A      2.0920 eV  592.67 nm  f=0.2527  <S**2>=0.000
     240 -> 243        0.25802
     241 -> 242        0.64924
 This state for optimization and/or second-order correction.
 Total Energy, E(TD-HF/TD-KS) =  -2932.55768636
 Copying the excited state density for this state as the 1-particle RhoCI density.

 The electronic state is 1-A.
 Alpha  occ. eigenvalues --  -46.83675 -19.27721 -19.26867 -19.21707 -19.21309
 Alpha  occ. eigenvalues --  -19.20545 -14.41068 -14.39592 -14.38967 -14.38651
 Alpha  occ. eigenvalues --  -10.40018 -10.39652 -10.36230 -10.33459 -10.32119
 Alpha  occ. eigenvalues --  -10.30838 -10.30377 -10.30260 -10.30216 -10.29168
 Alpha  occ. eigenvalues --  -10.29137 -10.28916 -10.28912 -10.28753 -10.28503
 Alpha  occ. eigenvalues --  -10.28488 -10.28430 -10.28404 -10.28330 -10.28310
 Alpha  occ. eigenvalues --  -10.27795 -10.27788 -10.27783 -10.27558 -10.27527
 Alpha  occ. eigenvalues --  -10.27281 -10.27273 -10.27075 -10.27003 -10.26978
 Alpha  occ. eigenvalues --  -10.26823 -10.26743 -10.26735 -10.26467 -10.26419
 Alpha  occ. eigenvalues --  -10.26387 -10.26305 -10.26297 -10.26151 -10.26112
 Alpha  occ. eigenvalues --  -10.26028 -10.25993 -10.25868 -10.25846 -10.25747
 Alpha  occ. eigenvalues --  -10.25669 -10.25448 -10.25116 -10.24987 -10.24858
 Alpha  occ. eigenvalues --  -10.24821 -10.24772 -10.24275 -10.23555 -10.23492
 Alpha  occ. eigenvalues --   -3.12668  -1.87383  -1.86913  -1.86835  -1.19430
 Alpha  occ. eigenvalues --   -1.19319  -1.10761  -1.10511  -1.07172  -1.03589
 Alpha  occ. eigenvalues --   -1.02568  -1.02122  -1.01298  -0.93088  -0.92105
 Alpha  occ. eigenvalues --   -0.90784  -0.89970  -0.89674  -0.89343  -0.88815
 Alpha  occ. eigenvalues --   -0.88170  -0.87996  -0.87052  -0.86705  -0.86445
 Alpha  occ. eigenvalues --   -0.85525  -0.84708  -0.83789  -0.83241  -0.82003
 Alpha  occ. eigenvalues --   -0.81797  -0.81543  -0.80237  -0.80086  -0.77820
 Alpha  occ. eigenvalues --   -0.77161  -0.76781  -0.76470  -0.75901  -0.75706
 Alpha  occ. eigenvalues --   -0.75410  -0.74143  -0.73719  -0.73044  -0.72451
 Alpha  occ. eigenvalues --   -0.71403  -0.70088  -0.69395  -0.68817  -0.68432
 Alpha  occ. eigenvalues --   -0.67426  -0.66385  -0.65637  -0.65449  -0.64210
 Alpha  occ. eigenvalues --   -0.64034  -0.63766  -0.63586  -0.63401  -0.62217
 Alpha  occ. eigenvalues --   -0.62071  -0.61011  -0.60363  -0.60225  -0.59504
 Alpha  occ. eigenvalues --   -0.58573  -0.58297  -0.58043  -0.57701  -0.57484
 Alpha  occ. eigenvalues --   -0.56544  -0.55878  -0.55640  -0.55332  -0.55162
 Alpha  occ. eigenvalues --   -0.54733  -0.54459  -0.54312  -0.54114  -0.53626
 Alpha  occ. eigenvalues --   -0.52856  -0.52583  -0.51936  -0.51849  -0.51544
 Alpha  occ. eigenvalues --   -0.51254  -0.51127  -0.50945  -0.50740  -0.50193
 Alpha  occ. eigenvalues --   -0.50071  -0.49870  -0.49768  -0.49701  -0.49434
 Alpha  occ. eigenvalues --   -0.48955  -0.48847  -0.48638  -0.48472  -0.48434
 Alpha  occ. eigenvalues --   -0.48040  -0.48003  -0.47364  -0.47034  -0.46885
 Alpha  occ. eigenvalues --   -0.46592  -0.46343  -0.46202  -0.45783  -0.45453
 Alpha  occ. eigenvalues --   -0.45298  -0.45130  -0.45006  -0.44924  -0.44770
 Alpha  occ. eigenvalues --   -0.44679  -0.44297  -0.44102  -0.43941  -0.43901
 Alpha  occ. eigenvalues --   -0.43768  -0.43567  -0.43365  -0.43118  -0.42953
 Alpha  occ. eigenvalues --   -0.42866  -0.42597  -0.42255  -0.42163  -0.42030
 Alpha  occ. eigenvalues --   -0.41958  -0.41827  -0.41657  -0.41439  -0.41213
 Alpha  occ. eigenvalues --   -0.41000  -0.40963  -0.40867  -0.40315  -0.40153
 Alpha  occ. eigenvalues --   -0.40023  -0.39937  -0.39521  -0.39399  -0.39225
 Alpha  occ. eigenvalues --   -0.38981  -0.38267  -0.38216  -0.38167  -0.37581
 Alpha  occ. eigenvalues --   -0.37467  -0.37264  -0.36605  -0.36546  -0.36527
 Alpha  occ. eigenvalues --   -0.36345  -0.36243  -0.35931  -0.35864  -0.35561
 Alpha  occ. eigenvalues --   -0.35247  -0.35079  -0.34330  -0.34286  -0.33728
 Alpha  occ. eigenvalues --   -0.33260  -0.33065  -0.32333  -0.31481  -0.30582
 Alpha  occ. eigenvalues --   -0.29562  -0.29202  -0.27606  -0.26506  -0.23435
 Alpha  occ. eigenvalues --   -0.21589
 Alpha virt. eigenvalues --   -0.06476  -0.03595   0.01163   0.03041   0.03732
 Alpha virt. eigenvalues --    0.05102   0.05686   0.06650   0.06811   0.07056
 Alpha virt. eigenvalues --    0.08244   0.10436   0.10774   0.11097   0.11616

 Mulliken charges:
               1
     1  Mg   0.804754
     2  C    0.041433
     3  C   -0.195849
     4  C   -0.177763
     5  C   -0.170698
     6  N   -0.654136
     7  C    0.321655
     8  C   -0.168397
     9  C   -0.129196
    10  C    0.344154
    11  C   -0.283929
    12  C   -0.177023
    13  C   -0.260770
    14  C    0.605053
    15  O   -0.506810
    16  O   -0.444381
    17  N   -0.716854
    18  C    0.264418
    19  C    0.112526
    20  C    0.022078
    21  C    0.318217
    22  C   -0.424656
    23  C   -0.102380
    24  C   -0.257700
    25  N   -0.676026
    26  C    0.278351
    27  C    0.066781
    28  C   -0.023808
    29  C    0.278975
    30  C   -0.349584
    31  C   -0.237646
    32  C   -0.304631
    33  N   -0.724216
    34  C    0.320282
    35  C   -0.044143
    36  C    0.087677
    37  C    0.270907
    38  C   -0.377913
    39  C    0.364849
    40  O   -0.459308
    41  C   -0.302736
    42  C    0.624003
    43  O   -0.469031
    44  O   -0.434046
    45  C   -0.084160
    46  C    0.013203
    47  C   -0.128705
    48  C    0.164733
    49  C   -0.374787
    50  C   -0.230738
    51  C   -0.161520
    52  C   -0.160788
    53  C   -0.078497
    54  C   -0.303969
    55  C   -0.168948
    56  C   -0.186035
    57  C   -0.179403
    58  C   -0.055095
    59  C   -0.319926
    60  C   -0.168624
    61  C   -0.197848
    62  C   -0.181141
    63  C   -0.057127
    64  C   -0.319127
    65  C   -0.276046
    66  H    0.082237
    67  H    0.093525
    68  H    0.096584
    69  H    0.116195
    70  H    0.098762
    71  H    0.080602
    72  H    0.089886
    73  H    0.135937
    74  H    0.123684
    75  H    0.127391
    76  H    0.124737
    77  H    0.145664
    78  H    0.114208
    79  H    0.104187
    80  H    0.106451
    81  H    0.101341
    82  H    0.109893
    83  H    0.102868
    84  H    0.090589
    85  H    0.067738
    86  H    0.126777
    87  H    0.096382
    88  H    0.111932
    89  H    0.109201
    90  H    0.125626
    91  H    0.100292
    92  H    0.128339
    93  H    0.133218
    94  H    0.132180
    95  H    0.166515
    96  H    0.130952
    97  H    0.109090
    98  H    0.127505
    99  H    0.135350
   100  H    0.110498
   101  H    0.094851
   102  H    0.110664
   103  H    0.101408
   104  H    0.131184
   105  H    0.051188
   106  H    0.107993
   107  H    0.095017
   108  H    0.070033
   109  H    0.095208
   110  H    0.095257
   111  H    0.066889
   112  H    0.107485
   113  H    0.087228
   114  H    0.107553
   115  H    0.077233
   116  H    0.088684
   117  H    0.108422
   118  H    0.072815
   119  H    0.093818
   120  H    0.089329
   121  H    0.092357
   122  H    0.106432
   123  H    0.097134
   124  H    0.091882
   125  H    0.086592
   126  H    0.077147
   127  H    0.088711
   128  H    0.093507
   129  H    0.109950
   130  H    0.096005
   131  H    0.104362
   132  H    0.100124
   133  H    0.102364
   134  H    0.106152
   135  H    0.069004
   136  H    0.110803
   137  H    0.060934
 Sum of Mulliken charges =   0.00000

 Dipole moment (field-independent basis, Debye):
    X=              3.8903    Y=              3.1221    Z=              0.4492  Tot=              5.0083
 Quadrupole moment (field-independent basis, Debye-Ang):
   XX=           -348.6041   YY=           -391.9643   ZZ=           -401.9097
   XY=            -12.2562   XZ=              8.1061   YZ=             -3.7468

 Normal termination of Gaussian 09 at Sat Jun 29 20:05:50 2019.
