 Gaussian 09, Revision D.01,
 Gaussian 09:  ES64L-G09RevD.01 24-Apr-2013

 -------------------------------------
 # td=(NStates=1) CAM-B3LYP/6-31G(d,p)
 -------------------------------------

 --
 TD
 --
 Symbolic Z-matrix:
 Charge =  0 Multiplicity = 1

                         Standard orientation:
 ---------------------------------------------------------------------
 Center     Atomic      Atomic             Coordinates (Angstroms)
 Number     Number       Type             X           Y           Z
 ---------------------------------------------------------------------
      1         12           0       -7.073265    0.572302    0.007052
      2          6           0       -4.871500   -1.905074    0.426866
      3          6           0       -4.711125    2.901305    1.115340
      4          6           0       -9.315131    3.180006   -0.378352
      5          6           0       -9.541450   -1.725321   -0.790468
      6          7           0       -5.135345    0.496034    0.732208
      7          6           0       -4.411450   -0.626927    0.900715
      8          6           0       -2.942963   -0.470620    1.294130
      9          6           0       -3.060852    1.045938    1.857721
     10          6           0       -4.283721    1.546211    1.216866
     11          6           0       -3.088875    1.061246    3.369229
     12          6           0       -1.893196   -0.570845    0.204850
     13          6           0       -0.456745   -0.373900    0.577157
     14          6           0        0.550578   -0.653488   -0.557980
     15          8           0        0.249939   -1.068521   -1.643143
     16          8           0        1.768820   -0.603174   -0.120799
     17          7           0       -7.061104    2.648358    0.298902
     18          6           0       -6.014822    3.328378    0.758979
     19          6           0       -6.288470    4.768379    0.837649
     20          6           0       -7.588889    4.847368    0.381949
     21          6           0       -8.087315    3.523237    0.011622
     22          6           0       -5.451411    5.815354    1.430213
     23          6           0       -8.562598    6.032331    0.413704
     24          6           0       -8.213492    7.343905    0.322313
     25          7           0       -9.160975    0.760948   -0.515669
     26          6           0       -9.836499    1.868308   -0.751083
     27          6           0      -11.180412    1.547133   -1.182483
     28          6           0      -11.170839    0.093488   -1.255716
     29          6           0       -9.918774   -0.386119   -0.869951
     30          6           0      -12.254648    2.431142   -1.475562
     31          6           0      -12.407533   -0.773206   -1.763882
     32          6           0      -12.365167   -1.210208   -3.183699
     33          7           0       -7.302100   -1.400509   -0.258764
     34          6           0       -8.233862   -2.211759   -0.550941
     35          6           0       -7.834524   -3.569386   -0.629627
     36          6           0       -6.517952   -3.518248   -0.096638
     37          6           0       -6.179277   -2.169360   -0.022912
     38          6           0       -8.834861   -4.691339   -0.947787
     39          6           0       -5.380610   -4.383464    0.137985
     40          8           0       -5.141635   -5.598538   -0.006966
     41          6           0       -4.194101   -3.268052    0.555718
     42          6           0       -3.638162   -3.689343    1.844892
     43          8           0       -3.868336   -3.152724    2.898110
     44          8           0       -2.883316   -4.726673    1.762152
     45          6           0       -2.377306   -5.255246    2.969042
     46          6           0        2.793368   -0.652796   -1.160288
     47          6           0        4.162840   -0.495423   -0.578800
     48          6           0        5.152673    0.412449   -1.038572
     49          6           0        5.010715    1.284759   -2.264086
     50          6           0        6.467981    0.546860   -0.281466
     51          6           0        7.555025   -0.263161   -0.972063
     52          6           0        8.940304   -0.127385   -0.092202
     53          6           0       10.222241   -0.599507   -0.817222
     54          6           0       10.150311   -2.152026   -1.043940
     55          6           0       11.504255   -0.260613    0.012917
     56          6           0       12.821414   -0.574621   -0.573639
     57          6           0       13.983514   -0.058306    0.249954
     58          6           0       15.365053   -0.219462   -0.426368
     59          6           0       15.771760   -1.642530   -0.794220
     60          6           0       16.458746    0.398765    0.409946
     61          6           0       17.854137    0.549248   -0.222249
     62          6           0       18.891278    1.174010    0.588381
     63          6           0       20.217723    1.352066    0.058536
     64          6           0       20.375517    2.267357   -1.139026
     65          6           0       21.113235    1.838273    1.098125
     66          1           0       -3.842297    3.486974    1.279811
     67          1           0      -10.169768    3.908368   -0.599344
     68          1           0      -10.335286   -2.549276   -0.828948
     69          1           0       -2.916427   -1.240504    2.091688
     70          1           0       -2.432554    1.765419    1.413720
     71          1           0       -2.025533    0.696880    3.787507
     72          1           0       -3.252219    1.984934    3.733073
     73          1           0       -3.832247    0.290565    3.772396
     74          1           0       -2.052353   -1.536815   -0.410401
     75          1           0       -1.961335    0.250641   -0.505907
     76          1           0       -0.236158    0.706239    1.113902
     77          1           0       -0.074039   -0.983208    1.262675
     78          1           0       -4.780613    6.392367    0.741048
     79          1           0       -6.017511    6.476423    1.784002
     80          1           0       -4.984065    5.378834    2.183941
     81          1           0       -9.693094    5.914538    0.344158
     82          1           0       -8.963214    8.131041    0.194137
     83          1           0       -7.218504    7.574241    0.241943
     84          1           0      -12.103267    3.031785   -2.370357
     85          1           0      -13.331362    2.056451   -1.470862
     86          1           0      -12.578475    2.920416   -0.598615
     87          1           0      -12.453707   -1.598510   -0.994856
     88          1           0      -13.281232   -0.081069   -1.576033
     89          1           0      -13.380649   -1.597592   -3.284348
     90          1           0      -12.554143   -0.193519   -3.979326
     91          1           0      -11.750689   -2.027660   -3.550012
     92          1           0       -9.225905   -4.363027   -1.903406
     93          1           0       -8.389700   -5.658219   -1.152222
     94          1           0       -9.611017   -4.577206   -0.164460
     95          1           0       -3.456548   -3.461384   -0.393215
     96          1           0       -1.818402   -4.425931    3.352779
     97          1           0       -3.348270   -5.440631    3.507695
     98          1           0       -2.072695   -6.237108    2.652644
     99          1           0        2.572210   -1.551574   -1.670713
    100          1           0        2.561041    0.099888   -1.938109
    101          1           0        4.340927   -1.159137    0.112775
    102          1           0        3.973094    1.013431   -2.814895
    103          1           0        5.086598    2.424260   -1.942177
    104          1           0        5.956107    1.148409   -2.791819
    105          1           0        6.762132    1.499314    0.039561
    106          1           0        6.345671    0.110189    0.759654
    107          1           0        7.201365   -1.444716   -1.007828
    108          1           0        7.858374    0.069340   -1.978698
    109          1           0        9.067506    0.964999    0.146443
    110          1           0        8.658309   -0.566632    1.038761
    111          1           0       10.285988   -0.304393   -1.875403
    112          1           0        9.297290   -2.486473   -1.531318
    113          1           0       10.971217   -2.422483   -1.634531
    114          1           0       10.075651   -2.599787   -0.218509
    115          1           0       11.349732    0.794808    0.301981
    116          1           0       11.533747   -0.911656    0.911410
    117          1           0       12.861970   -1.740594   -0.726404
    118          1           0       12.918689   -0.076903   -1.492506
    119          1           0       13.665335    0.815629    0.605679
    120          1           0       14.037172   -0.695532    1.353189
    121          1           0       15.423022    0.471637   -1.362377
    122          1           0       15.692312   -2.333956    0.165694
    123          1           0       15.148750   -2.085040   -1.485299
    124          1           0       16.851014   -1.776785   -1.478248
    125          1           0       16.104835    1.379481    0.737168
    126          1           0       16.394363   -0.332181    1.311573
    127          1           0       18.272834   -0.385308   -0.649762
    128          1           0       17.901748    1.161738   -1.044933
    129          1           0       18.539564    2.181330    1.062873
    130          1           0       18.888833    0.544829    1.524661
    131          1           0       20.662023    0.357646   -0.298821
    132          1           0       20.249330    3.178190   -0.709519
    133          1           0       21.510570    2.239877   -1.386700
    134          1           0       19.767719    1.877796   -2.037264
    135          1           0       21.118568    1.423786    2.097611
    136          1           0       22.297588    1.942674    0.893786
    137          1           0       20.907306    3.016366    1.240534
 ---------------------------------------------------------------------

 SCF Done:  E(RCAM-B3LYP) =  -2932.64219751     A.U. after   18 cycles

 Excitation energies and oscillator strengths:

 Excited State   1:      Singlet-A      2.0594 eV  602.03 nm  f=0.2336  <S**2>=0.000
     240 -> 242       -0.15919
     240 -> 243        0.21224
     241 -> 242        0.63342
     241 -> 243        0.14889
 This state for optimization and/or second-order correction.
 Total Energy, E(TD-HF/TD-KS) =  -2932.56651422
 Copying the excited state density for this state as the 1-particle RhoCI density.

 The electronic state is 1-A.
 Alpha  occ. eigenvalues --  -46.84674 -19.26220 -19.25045 -19.20313 -19.19969
 Alpha  occ. eigenvalues --  -19.18924 -14.41736 -14.39569 -14.38591 -14.38229
 Alpha  occ. eigenvalues --  -10.38466 -10.37459 -10.35341 -10.31481 -10.31397
 Alpha  occ. eigenvalues --  -10.30664 -10.30661 -10.30546 -10.29209 -10.29146
 Alpha  occ. eigenvalues --  -10.28547 -10.28353 -10.28304 -10.28279 -10.28213
 Alpha  occ. eigenvalues --  -10.28103 -10.28007 -10.27851 -10.27784 -10.27716
 Alpha  occ. eigenvalues --  -10.27652 -10.27631 -10.27503 -10.27487 -10.27394
 Alpha  occ. eigenvalues --  -10.27209 -10.27025 -10.26831 -10.26793 -10.26732
 Alpha  occ. eigenvalues --  -10.26727 -10.26541 -10.26530 -10.26492 -10.26343
 Alpha  occ. eigenvalues --  -10.26248 -10.26209 -10.26102 -10.25964 -10.25898
 Alpha  occ. eigenvalues --  -10.25664 -10.25559 -10.25534 -10.25337 -10.25326
 Alpha  occ. eigenvalues --  -10.25320 -10.25217 -10.25121 -10.25070 -10.24993
 Alpha  occ. eigenvalues --  -10.24781 -10.24477 -10.23806 -10.23765 -10.21586
 Alpha  occ. eigenvalues --   -3.13571  -1.88289  -1.87816  -1.87733  -1.20195
 Alpha  occ. eigenvalues --   -1.19880  -1.09287  -1.08811  -1.08676  -1.05857
 Alpha  occ. eigenvalues --   -1.04339  -1.02936  -1.01816  -0.92108  -0.91955
 Alpha  occ. eigenvalues --   -0.91090  -0.90609  -0.89932  -0.89259  -0.88745
 Alpha  occ. eigenvalues --   -0.88602  -0.87761  -0.87014  -0.86733  -0.86374
 Alpha  occ. eigenvalues --   -0.85582  -0.84686  -0.84124  -0.83681  -0.83258
 Alpha  occ. eigenvalues --   -0.82351  -0.81790  -0.80988  -0.80270  -0.78827
 Alpha  occ. eigenvalues --   -0.78268  -0.77240  -0.76498  -0.75850  -0.75602
 Alpha  occ. eigenvalues --   -0.75308  -0.75134  -0.74767  -0.73748  -0.72167
 Alpha  occ. eigenvalues --   -0.72084  -0.70260  -0.69227  -0.68642  -0.68358
 Alpha  occ. eigenvalues --   -0.67407  -0.66790  -0.65550  -0.64667  -0.64405
 Alpha  occ. eigenvalues --   -0.63769  -0.63729  -0.63541  -0.62636  -0.61601
 Alpha  occ. eigenvalues --   -0.61446  -0.60870  -0.60389  -0.59878  -0.58988
 Alpha  occ. eigenvalues --   -0.58283  -0.58098  -0.57865  -0.57482  -0.56950
 Alpha  occ. eigenvalues --   -0.56282  -0.55637  -0.55504  -0.54934  -0.54577
 Alpha  occ. eigenvalues --   -0.54486  -0.54039  -0.53712  -0.53507  -0.53441
 Alpha  occ. eigenvalues --   -0.52898  -0.52786  -0.52512  -0.52320  -0.52216
 Alpha  occ. eigenvalues --   -0.51840  -0.51815  -0.51662  -0.51463  -0.51237
 Alpha  occ. eigenvalues --   -0.51157  -0.50888  -0.50472  -0.50248  -0.50055
 Alpha  occ. eigenvalues --   -0.49712  -0.49333  -0.48751  -0.48535  -0.48322
 Alpha  occ. eigenvalues --   -0.48243  -0.47887  -0.47697  -0.47388  -0.47102
 Alpha  occ. eigenvalues --   -0.46969  -0.46797  -0.46718  -0.46320  -0.46284
 Alpha  occ. eigenvalues --   -0.46131  -0.46071  -0.45545  -0.45417  -0.45389
 Alpha  occ. eigenvalues --   -0.44998  -0.44784  -0.44536  -0.44414  -0.44134
 Alpha  occ. eigenvalues --   -0.43860  -0.43466  -0.43383  -0.43275  -0.43151
 Alpha  occ. eigenvalues --   -0.42948  -0.42819  -0.42538  -0.42486  -0.42224
 Alpha  occ. eigenvalues --   -0.42170  -0.41834  -0.41467  -0.41200  -0.40884
 Alpha  occ. eigenvalues --   -0.40754  -0.40423  -0.40346  -0.40203  -0.40012
 Alpha  occ. eigenvalues --   -0.39960  -0.39872  -0.39527  -0.39483  -0.38968
 Alpha  occ. eigenvalues --   -0.38894  -0.38445  -0.38419  -0.37822  -0.37671
 Alpha  occ. eigenvalues --   -0.37654  -0.37394  -0.37136  -0.36454  -0.36186
 Alpha  occ. eigenvalues --   -0.36089  -0.35833  -0.35771  -0.35638  -0.35549
 Alpha  occ. eigenvalues --   -0.35246  -0.35152  -0.35047  -0.34149  -0.33271
 Alpha  occ. eigenvalues --   -0.32906  -0.32455  -0.32260  -0.30436  -0.29482
 Alpha  occ. eigenvalues --   -0.28888  -0.28809  -0.27730  -0.26360  -0.23369
 Alpha  occ. eigenvalues --   -0.20561
 Alpha virt. eigenvalues --   -0.05934  -0.03344   0.01217   0.03975   0.04122
 Alpha virt. eigenvalues --    0.05751   0.06783   0.07260   0.07598   0.07853
 Alpha virt. eigenvalues --    0.08892   0.10979   0.11412   0.11725   0.11807

 Mulliken charges:
               1
     1  Mg   0.820713
     2  C    0.053562
     3  C   -0.212189
     4  C   -0.174238
     5  C   -0.183935
     6  N   -0.626991
     7  C    0.309334
     8  C   -0.150771
     9  C   -0.152834
    10  C    0.293859
    11  C   -0.287303
    12  C   -0.159791
    13  C   -0.263618
    14  C    0.595721
    15  O   -0.478970
    16  O   -0.460638
    17  N   -0.707390
    18  C    0.343260
    19  C    0.005273
    20  C   -0.018679
    21  C    0.340847
    22  C   -0.341192
    23  C   -0.083758
    24  C   -0.239061
    25  N   -0.679191
    26  C    0.286609
    27  C    0.018128
    28  C   -0.012075
    29  C    0.298959
    30  C   -0.408108
    31  C   -0.213304
    32  C   -0.288987
    33  N   -0.714140
    34  C    0.316564
    35  C   -0.002937
    36  C    0.001000
    37  C    0.261271
    38  C   -0.365505
    39  C    0.340234
    40  O   -0.471029
    41  C   -0.350198
    42  C    0.620153
    43  O   -0.509977
    44  O   -0.420949
    45  C   -0.080854
    46  C    0.007643
    47  C   -0.116083
    48  C    0.099985
    49  C   -0.344558
    50  C   -0.232356
    51  C   -0.168232
    52  C   -0.173682
    53  C   -0.077763
    54  C   -0.314314
    55  C   -0.173265
    56  C   -0.174039
    57  C   -0.152968
    58  C   -0.060764
    59  C   -0.292741
    60  C   -0.152806
    61  C   -0.175807
    62  C   -0.147429
    63  C   -0.053897
    64  C   -0.293393
    65  C   -0.302045
    66  H    0.084540
    67  H    0.097838
    68  H    0.096372
    69  H    0.138638
    70  H    0.104443
    71  H    0.091991
    72  H    0.117290
    73  H    0.130706
    74  H    0.120718
    75  H    0.116935
    76  H    0.101435
    77  H    0.141662
    78  H    0.114919
    79  H    0.128342
    80  H    0.122093
    81  H    0.094759
    82  H    0.105275
    83  H    0.098308
    84  H    0.128879
    85  H    0.101459
    86  H    0.125796
    87  H    0.098816
    88  H    0.100504
    89  H    0.110947
    90  H    0.073763
    91  H    0.119547
    92  H    0.129090
    93  H    0.143753
    94  H    0.135070
    95  H    0.147393
    96  H    0.136224
    97  H    0.129582
    98  H    0.138065
    99  H    0.140616
   100  H    0.107666
   101  H    0.087803
   102  H    0.104830
   103  H    0.107577
   104  H    0.128318
   105  H    0.114531
   106  H    0.102491
   107  H    0.087282
   108  H    0.102233
   109  H    0.083495
   110  H    0.068947
   111  H    0.089146
   112  H    0.097666
   113  H    0.101686
   114  H    0.110768
   115  H    0.082033
   116  H    0.094982
   117  H    0.089155
   118  H    0.097307
   119  H    0.108109
   120  H    0.037547
   121  H    0.070697
   122  H    0.089658
   123  H    0.117141
   124  H    0.074981
   125  H    0.087883
   126  H    0.072909
   127  H    0.088696
   128  H    0.094236
   129  H    0.064631
   130  H    0.083675
   131  H    0.079271
   132  H    0.110704
   133  H    0.092510
   134  H    0.098280
   135  H    0.110358
   136  H    0.077521
   137  H    0.069146
 Sum of Mulliken charges =   0.00000

 Dipole moment (field-independent basis, Debye):
    X=              2.1320    Y=              4.9580    Z=              0.2583  Tot=              5.4031
 Quadrupole moment (field-independent basis, Debye-Ang):
   XX=           -347.4064   YY=           -391.6505   ZZ=           -399.7300
   XY=            -18.5393   XZ=              1.6379   YZ=             -1.8392

 Normal termination of Gaussian 09 at Sat Jun 29 23:28:19 2019.
