 Gaussian 09, Revision D.01,
 Gaussian 09:  ES64L-G09RevD.01 24-Apr-2013

 -------------------------------------
 # td=(NStates=1) CAM-B3LYP/6-31G(d,p)
 -------------------------------------

 --
 TD
 --
 Symbolic Z-matrix:
 Charge =  0 Multiplicity = 1

                         Standard orientation:
 ---------------------------------------------------------------------
 Center     Atomic      Atomic             Coordinates (Angstroms)
 Number     Number       Type             X           Y           Z
 ---------------------------------------------------------------------
      1         12           0       -7.153157    0.559354    0.096475
      2          6           0       -4.734616   -1.907338    0.471518
      3          6           0       -4.795032    2.857754    1.126071
      4          6           0       -9.426037    2.988212   -0.410274
      5          6           0       -9.394276   -1.881051   -0.851792
      6          7           0       -5.054117    0.541794    0.759579
      7          6           0       -4.319313   -0.609711    0.790884
      8          6           0       -2.931249   -0.374396    1.193928
      9          6           0       -3.030849    1.029420    1.750372
     10          6           0       -4.404570    1.558544    1.245072
     11          6           0       -3.043876    1.159935    3.205698
     12          6           0       -1.935636   -0.528354    0.047821
     13          6           0       -0.528850   -0.265703    0.437096
     14          6           0        0.465185   -0.559500   -0.644164
     15          8           0        0.215291   -0.972860   -1.769510
     16          8           0        1.809421   -0.284548   -0.254613
     17          7           0       -7.209708    2.563848    0.451355
     18          6           0       -6.098760    3.298639    0.838971
     19          6           0       -6.487545    4.782684    0.952595
     20          6           0       -7.806793    4.828054    0.332095
     21          6           0       -8.162388    3.434721    0.113082
     22          6           0       -5.662807    5.947309    1.427341
     23          6           0       -8.620201    6.052396    0.194325
     24          6           0       -8.205388    7.298705   -0.097435
     25          7           0       -9.029615    0.536416   -0.455172
     26          6           0       -9.843919    1.668374   -0.558714
     27          6           0      -11.111757    1.417243   -1.144416
     28          6           0      -11.116007   -0.002663   -1.241437
     29          6           0       -9.858597   -0.487012   -0.746656
     30          6           0      -12.266722    2.364926   -1.380169
     31          6           0      -12.318545   -0.792104   -1.518581
     32          6           0      -12.518711   -1.334758   -3.018011
     33          7           0       -7.012011   -1.416969   -0.167079
     34          6           0       -8.093029   -2.328982   -0.529334
     35          6           0       -7.729510   -3.613548   -0.503862
     36          6           0       -6.291412   -3.605607   -0.156902
     37          6           0       -6.035006   -2.222205    0.072086
     38          6           0       -8.546694   -4.839055   -0.809377
     39          6           0       -5.126705   -4.374157    0.042022
     40          8           0       -4.995772   -5.514541   -0.069960
     41          6           0       -3.988806   -3.206720    0.468609
     42          6           0       -3.509088   -3.715824    1.851539
     43          8           0       -3.744437   -3.100672    2.821713
     44          8           0       -2.768561   -4.791733    1.861404
     45          6           0       -2.119422   -5.288629    2.989031
     46          6           0        2.763903   -0.623592   -1.279571
     47          6           0        4.169845   -0.355272   -0.670630
     48          6           0        5.075036    0.527497   -1.026472
     49          6           0        5.009141    1.400189   -2.200938
     50          6           0        6.314333    0.539325   -0.127344
     51          6           0        7.524221   -0.088217   -0.855543
     52          6           0        8.841425   -0.024693   -0.178471
     53          6           0       10.080765   -0.540990   -0.870120
     54          6           0        9.986559   -1.964950   -1.266072
     55          6           0       11.250454   -0.206659    0.004614
     56          6           0       12.637080   -0.452359   -0.594913
     57          6           0       13.938723   -0.072222    0.165114
     58          6           0       15.270757   -0.106589   -0.620763
     59          6           0       15.545939   -1.563961   -1.008762
     60          6           0       16.373917    0.516075    0.326856
     61          6           0       17.797648    0.506756   -0.214551
     62          6           0       18.831911    1.154351    0.698249
     63          6           0       20.278349    1.060068    0.402289
     64          6           0       20.537181    1.866282   -1.014352
     65          6           0       21.106371    1.739873    1.547524
     66          1           0       -4.117702    3.541904    1.443965
     67          1           0      -10.015735    3.912101   -0.549237
     68          1           0      -10.428337   -2.410900   -1.025662
     69          1           0       -2.598983   -0.932001    2.044958
     70          1           0       -2.397981    1.685936    1.242901
     71          1           0       -2.149574    0.568414    3.585391
     72          1           0       -3.278622    2.287618    3.562779
     73          1           0       -3.869443    0.662099    3.618423
     74          1           0       -2.152039   -1.450838   -0.465543
     75          1           0       -2.392861    0.144652   -0.665266
     76          1           0       -0.299283    0.845735    0.796964
     77          1           0       -0.244472   -1.030412    1.242432
     78          1           0       -5.062544    6.388652    0.707714
     79          1           0       -6.187957    6.680565    1.752631
     80          1           0       -5.050282    5.429888    2.198166
     81          1           0       -9.660094    5.829424    0.391603
     82          1           0       -8.819992    8.249850   -0.198270
     83          1           0       -7.283209    7.530771   -0.398042
     84          1           0      -12.074007    3.026034   -2.083908
     85          1           0      -13.155024    1.753551   -1.408166
     86          1           0      -12.314496    3.132570   -0.572257
     87          1           0      -12.336651   -1.700603   -0.841639
     88          1           0      -13.215043   -0.249871   -1.100964
     89          1           0      -13.450972   -1.786535   -3.187939
     90          1           0      -12.184284   -0.538447   -3.615938
     91          1           0      -11.725763   -1.958067   -3.511480
     92          1           0       -8.700169   -4.778379   -2.005594
     93          1           0       -8.039227   -5.746542   -0.361428
     94          1           0       -9.469078   -4.605569   -0.238978
     95          1           0       -3.178112   -3.388101   -0.373705
     96          1           0       -1.670067   -4.396267    3.680753
     97          1           0       -3.089635   -5.516322    3.443268
     98          1           0       -1.618067   -6.066452    2.653453
     99          1           0        2.660913   -1.563540   -1.802145
    100          1           0        2.685208    0.096814   -2.170626
    101          1           0        4.559824   -0.934317    0.144390
    102          1           0        4.071916    1.294124   -2.677847
    103          1           0        5.176987    2.345639   -1.720429
    104          1           0        5.959967    1.320138   -3.018275
    105          1           0        6.640422    1.550900    0.113675
    106          1           0        6.208000   -0.101727    0.806421
    107          1           0        7.107168   -1.284358   -1.020094
    108          1           0        7.751623    0.434308   -1.939200
    109          1           0        8.952261    0.939674    0.179569
    110          1           0        8.793800   -0.675317    0.800121
    111          1           0       10.108506    0.332746   -1.739555
    112          1           0        9.200733   -2.172910   -2.166005
    113          1           0       10.826292   -2.419538   -1.618883
    114          1           0        9.830038   -2.586118   -0.453806
    115          1           0       11.056608    0.812749    0.421260
    116          1           0       11.235823   -0.631400    0.943501
    117          1           0       12.597345   -1.504670   -0.841175
    118          1           0       12.638297    0.235339   -1.665782
    119          1           0       13.663115    1.004930    0.565744
    120          1           0       14.081736   -0.834233    0.992015
    121          1           0       15.125059    0.533256   -1.591229
    122          1           0       15.458529   -2.305749   -0.117434
    123          1           0       14.923200   -1.771604   -1.805645
    124          1           0       16.534383   -1.731116   -1.273823
    125          1           0       16.141739    1.582885    0.698056
    126          1           0       16.283654   -0.155795    1.213713
    127          1           0       17.983835   -0.545698   -0.478993
    128          1           0       17.747947    0.935213   -1.263282
    129          1           0       18.385678    2.364706    0.650270
    130          1           0       18.792487    0.842984    1.758750
    131          1           0       20.624636   -0.020791    0.224915
    132          1           0       20.173094    2.905337   -1.019532
    133          1           0       21.598308    1.918406   -1.261085
    134          1           0       20.036068    1.278979   -1.831389
    135          1           0       21.096003    1.220020    2.633234
    136          1           0       22.110512    2.014477    1.065100
    137          1           0       20.836707    2.824707    1.582329
 ---------------------------------------------------------------------

 SCF Done:  E(RCAM-B3LYP) =  -2932.66512191     A.U. after   15 cycles

 Excitation energies and oscillator strengths:

 Excited State   1:      Singlet-A      2.0154 eV  615.17 nm  f=0.2132  <S**2>=0.000
     240 -> 243        0.24420
     241 -> 242        0.65364
 This state for optimization and/or second-order correction.
 Total Energy, E(TD-HF/TD-KS) =  -2932.59105577
 Copying the excited state density for this state as the 1-particle RhoCI density.

 The electronic state is 1-A.
 Alpha  occ. eigenvalues --  -46.83708 -19.25797 -19.24793 -19.21665 -19.19969
 Alpha  occ. eigenvalues --  -19.19202 -14.41094 -14.39724 -14.39253 -14.38948
 Alpha  occ. eigenvalues --  -10.39735 -10.37770 -10.33804 -10.31803 -10.31176
 Alpha  occ. eigenvalues --  -10.31012 -10.30138 -10.29938 -10.29652 -10.29578
 Alpha  occ. eigenvalues --  -10.29537 -10.28982 -10.28937 -10.28922 -10.28354
 Alpha  occ. eigenvalues --  -10.28317 -10.28110 -10.28013 -10.27687 -10.27664
 Alpha  occ. eigenvalues --  -10.27527 -10.27517 -10.27485 -10.27317 -10.27093
 Alpha  occ. eigenvalues --  -10.26922 -10.26778 -10.26438 -10.26407 -10.26365
 Alpha  occ. eigenvalues --  -10.26333 -10.26317 -10.26278 -10.26268 -10.26256
 Alpha  occ. eigenvalues --  -10.26215 -10.26150 -10.26118 -10.26078 -10.25984
 Alpha  occ. eigenvalues --  -10.25816 -10.25710 -10.25504 -10.25481 -10.25115
 Alpha  occ. eigenvalues --  -10.25107 -10.24986 -10.24971 -10.24735 -10.24635
 Alpha  occ. eigenvalues --  -10.24611 -10.24155 -10.24131 -10.24084 -10.23987
 Alpha  occ. eigenvalues --   -3.12949  -1.87641  -1.87188  -1.87148  -1.19817
 Alpha  occ. eigenvalues --   -1.16175  -1.14123  -1.10196  -1.08357  -1.05693
 Alpha  occ. eigenvalues --   -1.03993  -1.03539  -1.02541  -0.92160  -0.91760
 Alpha  occ. eigenvalues --   -0.91132  -0.90525  -0.89544  -0.88843  -0.88693
 Alpha  occ. eigenvalues --   -0.88479  -0.88010  -0.87750  -0.87490  -0.86549
 Alpha  occ. eigenvalues --   -0.84740  -0.84452  -0.83463  -0.82855  -0.82494
 Alpha  occ. eigenvalues --   -0.81599  -0.81534  -0.80503  -0.79959  -0.78713
 Alpha  occ. eigenvalues --   -0.78276  -0.78063  -0.77276  -0.76024  -0.75725
 Alpha  occ. eigenvalues --   -0.75521  -0.74568  -0.74407  -0.73345  -0.72777
 Alpha  occ. eigenvalues --   -0.71956  -0.70994  -0.70191  -0.69178  -0.68620
 Alpha  occ. eigenvalues --   -0.67377  -0.65989  -0.65708  -0.65010  -0.63331
 Alpha  occ. eigenvalues --   -0.63220  -0.62753  -0.62272  -0.61812  -0.61725
 Alpha  occ. eigenvalues --   -0.61109  -0.60823  -0.60342  -0.59792  -0.58808
 Alpha  occ. eigenvalues --   -0.58142  -0.57928  -0.57838  -0.57107  -0.56374
 Alpha  occ. eigenvalues --   -0.56248  -0.55942  -0.55238  -0.55111  -0.54671
 Alpha  occ. eigenvalues --   -0.54487  -0.54222  -0.54125  -0.53548  -0.53042
 Alpha  occ. eigenvalues --   -0.52622  -0.52584  -0.52531  -0.52228  -0.52053
 Alpha  occ. eigenvalues --   -0.51489  -0.51246  -0.51075  -0.50946  -0.50673
 Alpha  occ. eigenvalues --   -0.50406  -0.49923  -0.49882  -0.49654  -0.49561
 Alpha  occ. eigenvalues --   -0.49410  -0.49212  -0.49169  -0.48960  -0.48645
 Alpha  occ. eigenvalues --   -0.48469  -0.48211  -0.48032  -0.47622  -0.47464
 Alpha  occ. eigenvalues --   -0.47328  -0.46982  -0.46814  -0.46508  -0.46300
 Alpha  occ. eigenvalues --   -0.46040  -0.45899  -0.45709  -0.45610  -0.45378
 Alpha  occ. eigenvalues --   -0.45153  -0.45096  -0.44469  -0.44427  -0.44149
 Alpha  occ. eigenvalues --   -0.44072  -0.43925  -0.43674  -0.43542  -0.43264
 Alpha  occ. eigenvalues --   -0.43128  -0.43036  -0.42860  -0.42772  -0.42384
 Alpha  occ. eigenvalues --   -0.42316  -0.42170  -0.41940  -0.41600  -0.41192
 Alpha  occ. eigenvalues --   -0.40898  -0.40673  -0.40628  -0.40571  -0.40399
 Alpha  occ. eigenvalues --   -0.39790  -0.39693  -0.39423  -0.39344  -0.39193
 Alpha  occ. eigenvalues --   -0.38649  -0.38319  -0.37915  -0.37813  -0.37358
 Alpha  occ. eigenvalues --   -0.37273  -0.36903  -0.36806  -0.36654  -0.36628
 Alpha  occ. eigenvalues --   -0.36083  -0.35571  -0.35404  -0.35141  -0.35001
 Alpha  occ. eigenvalues --   -0.34765  -0.34647  -0.34397  -0.34121  -0.33995
 Alpha  occ. eigenvalues --   -0.33107  -0.32839  -0.32325  -0.31130  -0.29489
 Alpha  occ. eigenvalues --   -0.28818  -0.28654  -0.27980  -0.27375  -0.23095
 Alpha  occ. eigenvalues --   -0.21253
 Alpha virt. eigenvalues --   -0.06768  -0.03204   0.01727   0.04418   0.05440
 Alpha virt. eigenvalues --    0.06045   0.06578   0.07037   0.07407   0.08440
 Alpha virt. eigenvalues --    0.09285   0.10752   0.11611   0.11654   0.12026

 Mulliken charges:
               1
     1  Mg   0.825059
     2  C    0.129934
     3  C   -0.184165
     4  C   -0.175196
     5  C   -0.168274
     6  N   -0.618150
     7  C    0.287811
     8  C   -0.151881
     9  C   -0.140619
    10  C    0.316624
    11  C   -0.301792
    12  C   -0.162372
    13  C   -0.262633
    14  C    0.616287
    15  O   -0.464282
    16  O   -0.499524
    17  N   -0.695905
    18  C    0.297431
    19  C   -0.021252
    20  C   -0.010446
    21  C    0.297265
    22  C   -0.343414
    23  C   -0.078281
    24  C   -0.247570
    25  N   -0.683051
    26  C    0.280220
    27  C    0.039034
    28  C   -0.008719
    29  C    0.267278
    30  C   -0.349642
    31  C   -0.265674
    32  C   -0.323981
    33  N   -0.722501
    34  C    0.252093
    35  C    0.033829
    36  C    0.007889
    37  C    0.311140
    38  C   -0.345619
    39  C    0.308947
    40  O   -0.415689
    41  C   -0.395519
    42  C    0.604583
    43  O   -0.459241
    44  O   -0.438197
    45  C   -0.074242
    46  C    0.017392
    47  C   -0.141883
    48  C    0.155291
    49  C   -0.349161
    50  C   -0.237574
    51  C   -0.145845
    52  C   -0.154769
    53  C   -0.029681
    54  C   -0.311043
    55  C   -0.179409
    56  C   -0.162700
    57  C   -0.155697
    58  C   -0.069967
    59  C   -0.310722
    60  C   -0.157175
    61  C   -0.182814
    62  C   -0.118800
    63  C   -0.057638
    64  C   -0.330151
    65  C   -0.310576
    66  H    0.069522
    67  H    0.076953
    68  H    0.110208
    69  H    0.118602
    70  H    0.099058
    71  H    0.100927
    72  H    0.093160
    73  H    0.137839
    74  H    0.129518
    75  H    0.114638
    76  H    0.140966
    77  H    0.142554
    78  H    0.131936
    79  H    0.131082
    80  H    0.108256
    81  H    0.098190
    82  H    0.104703
    83  H    0.107188
    84  H    0.138155
    85  H    0.117624
    86  H    0.112537
    87  H    0.098790
    88  H    0.105371
    89  H    0.117337
    90  H    0.120297
    91  H    0.102904
    92  H    0.124156
    93  H    0.145698
    94  H    0.122395
    95  H    0.142945
    96  H    0.112764
    97  H    0.135969
    98  H    0.136143
    99  H    0.137209
   100  H    0.096173
   101  H    0.077366
   102  H    0.116889
   103  H    0.121149
   104  H    0.097381
   105  H    0.092214
   106  H    0.105219
   107  H    0.059670
   108  H    0.060051
   109  H    0.097037
   110  H    0.059015
   111  H    0.056440
   112  H    0.090637
   113  H    0.113827
   114  H    0.110807
   115  H    0.076552
   116  H    0.094956
   117  H    0.096979
   118  H    0.044822
   119  H    0.077101
   120  H    0.082740
   121  H    0.072981
   122  H    0.084992
   123  H    0.121636
   124  H    0.108660
   125  H    0.079989
   126  H    0.083626
   127  H    0.084622
   128  H    0.090357
   129  H    0.047982
   130  H    0.087998
   131  H    0.087634
   132  H    0.105649
   133  H    0.098018
   134  H    0.103470
   135  H    0.097263
   136  H    0.092633
   137  H    0.105203
 Sum of Mulliken charges =   0.00000

 Dipole moment (field-independent basis, Debye):
    X=              0.0758    Y=              4.0901    Z=              0.7167  Tot=              4.1531
 Quadrupole moment (field-independent basis, Debye-Ang):
   XX=           -334.1986   YY=           -384.3363   ZZ=           -400.3420
   XY=            -27.4444   XZ=              9.6966   YZ=             -5.2915

 Normal termination of Gaussian 09 at Thu Jun 27 10:21:54 2019.
