 Gaussian 09, Revision D.01,
 Gaussian 09:  ES64L-G09RevD.01 24-Apr-2013

 -------------------------------------
 # td=(NStates=1) CAM-B3LYP/6-31G(d,p)
 -------------------------------------

 --
 TD
 --
 Symbolic Z-matrix:
 Charge =  0 Multiplicity = 1

                         Standard orientation:
 ---------------------------------------------------------------------
 Center     Atomic      Atomic             Coordinates (Angstroms)
 Number     Number       Type             X           Y           Z
 ---------------------------------------------------------------------
      1         12           0       -7.169100    0.620208    0.055249
      2          6           0       -4.827493   -1.957193    0.459618
      3          6           0       -4.880804    2.774964    1.230501
      4          6           0       -9.438588    3.071716   -0.423002
      5          6           0       -9.497220   -1.688641   -0.913842
      6          7           0       -5.076697    0.389976    0.684918
      7          6           0       -4.309097   -0.717987    0.840170
      8          6           0       -2.898651   -0.375915    1.294716
      9          6           0       -3.046883    1.022729    1.709354
     10          6           0       -4.447058    1.439075    1.160909
     11          6           0       -2.863882    1.215768    3.258254
     12          6           0       -1.894235   -0.582628    0.089581
     13          6           0       -0.465212   -0.259777    0.477472
     14          6           0        0.485021   -0.708256   -0.563226
     15          8           0        0.161463   -1.147364   -1.646702
     16          8           0        1.765458   -0.510848   -0.055369
     17          7           0       -7.079724    2.615235    0.309083
     18          6           0       -6.075944    3.311757    0.822332
     19          6           0       -6.411975    4.724581    0.906207
     20          6           0       -7.764686    4.785309    0.549379
     21          6           0       -8.198585    3.377670    0.140691
     22          6           0       -5.523680    5.808845    1.284900
     23          6           0       -8.614412    5.969124    0.309989
     24          6           0       -8.105528    7.298797    0.057792
     25          7           0       -9.178865    0.703218   -0.635384
     26          6           0       -9.948064    1.825381   -0.674239
     27          6           0      -11.243372    1.466502   -1.039578
     28          6           0      -11.342843    0.038301   -1.168374
     29          6           0       -9.933946   -0.368963   -0.955758
     30          6           0      -12.293410    2.536260   -1.244118
     31          6           0      -12.420712   -0.700206   -1.838584
     32          6           0      -12.399054   -1.134109   -3.249831
     33          7           0       -7.229641   -1.336467   -0.261041
     34          6           0       -8.226003   -2.200932   -0.684848
     35          6           0       -7.741728   -3.592905   -0.584929
     36          6           0       -6.459343   -3.525281   -0.241816
     37          6           0       -6.148319   -2.073593    0.009018
     38          6           0       -8.524983   -4.871325   -1.018135
     39          6           0       -5.249554   -4.326478    0.188356
     40          8           0       -5.225643   -5.552261    0.241660
     41          6           0       -4.120324   -3.309499    0.512066
     42          6           0       -3.535646   -3.601004    1.889888
     43          8           0       -3.897702   -3.120348    2.995700
     44          8           0       -2.672132   -4.613014    1.746387
     45          6           0       -2.115230   -5.011435    3.092900
     46          6           0        2.807963   -0.718961   -1.004714
     47          6           0        4.082899   -0.396856   -0.357402
     48          6           0        5.156897    0.369637   -0.842890
     49          6           0        5.225835    1.038864   -2.142633
     50          6           0        6.431515    0.217286   -0.115578
     51          6           0        7.578301   -0.401733   -0.860005
     52          6           0        8.898308   -0.180677   -0.031838
     53          6           0       10.195619   -0.644133   -0.805244
     54          6           0        9.966317   -2.028697   -1.350393
     55          6           0       11.457215   -0.373390   -0.037109
     56          6           0       12.802538   -0.480755   -0.849715
     57          6           0       14.015568   -0.039887    0.095735
     58          6           0       15.379688   -0.284134   -0.446272
     59          6           0       15.694665   -1.764771   -0.599090
     60          6           0       16.450313    0.408277    0.473011
     61          6           0       17.783604    0.636206   -0.187882
     62          6           0       18.843743    1.429329    0.615470
     63          6           0       20.301665    1.405224    0.076558
     64          6           0       20.301692    2.191613   -1.279622
     65          6           0       21.208576    2.075917    1.137679
     66          1           0       -4.188921    3.610815    1.703245
     67          1           0      -10.301614    3.933032   -0.349316
     68          1           0      -10.104204   -2.613400   -1.242826
     69          1           0       -2.753102   -1.046213    2.117403
     70          1           0       -2.447916    1.674943    1.166099
     71          1           0       -1.829985    1.013175    3.583290
     72          1           0       -3.032934    2.322869    3.602970
     73          1           0       -3.801713    0.531197    3.652665
     74          1           0       -2.177299   -1.597467   -0.473804
     75          1           0       -2.102699    0.311966   -0.625792
     76          1           0       -0.202464    0.956487    0.644175
     77          1           0       -0.444164   -0.895332    1.314405
     78          1           0       -4.896830    6.208244    0.418001
     79          1           0       -6.064731    6.452808    1.856918
     80          1           0       -4.853274    5.366519    2.019087
     81          1           0       -9.747619    5.856028    0.296215
     82          1           0       -8.936695    8.128232   -0.236837
     83          1           0       -7.064452    7.465235   -0.185212
     84          1           0      -11.927552    3.177528   -2.053216
     85          1           0      -13.367715    2.201308   -1.498966
     86          1           0      -12.355288    3.004127   -0.222887
     87          1           0      -12.593419   -1.412020   -1.185371
     88          1           0      -13.420689   -0.168416   -1.398088
     89          1           0      -13.318184   -1.638459   -3.505456
     90          1           0      -12.375052   -0.286930   -4.115300
     91          1           0      -11.511365   -1.697122   -3.513890
     92          1           0       -8.605160   -4.622609   -2.167407
     93          1           0       -8.216602   -5.771143   -0.866932
     94          1           0       -9.523922   -4.959229   -0.540223
     95          1           0       -3.351757   -3.308897   -0.318170
     96          1           0       -1.365860   -4.270360    3.561158
     97          1           0       -2.745010   -5.134534    3.868632
     98          1           0       -1.484936   -5.854444    2.821546
     99          1           0        2.740217   -1.600557   -1.380610
    100          1           0        2.646734    0.120857   -1.746060
    101          1           0        4.237961   -0.967956    0.610644
    102          1           0        4.288335    1.235798   -2.564346
    103          1           0        5.699866    1.882765   -2.212693
    104          1           0        5.740528    0.353412   -3.114561
    105          1           0        6.631781    1.314792    0.202817
    106          1           0        6.394716   -0.553657    0.840744
    107          1           0        7.347744   -1.339946   -1.108879
    108          1           0        7.522012    0.178872   -1.852692
    109          1           0        8.962046    0.931538    0.254030
    110          1           0        8.618243   -0.803094    0.943579
    111          1           0       10.198524    0.069819   -1.775060
    112          1           0        9.011981   -1.876034   -1.980829
    113          1           0       10.837039   -2.389989   -1.974823
    114          1           0        9.987484   -2.982335   -0.602399
    115          1           0       11.369523    0.423599    0.344130
    116          1           0       11.466791   -0.962578    0.904393
    117          1           0       12.874673   -1.513848   -1.058491
    118          1           0       12.732866    0.167092   -1.797991
    119          1           0       13.744909    0.884919    0.561175
    120          1           0       13.840618   -0.651059    1.121035
    121          1           0       15.379351    0.306784   -1.444714
    122          1           0       15.675297   -2.061988    0.429129
    123          1           0       14.877344   -2.286849   -1.209028
    124          1           0       16.670579   -2.221222   -0.920548
    125          1           0       16.101341    1.344121    0.670355
    126          1           0       16.614215   -0.116091    1.361137
    127          1           0       18.233362   -0.310917   -0.604270
    128          1           0       17.776582    1.196965   -1.085968
    129          1           0       18.312514    2.422493    0.742649
    130          1           0       18.780334    0.792800    1.771399
    131          1           0       20.705545    0.431504   -0.145414
    132          1           0       20.052619    3.287065   -1.285049
    133          1           0       21.250046    2.323765   -1.849732
    134          1           0       19.623537    1.805400   -1.955846
    135          1           0       21.255507    1.613275    2.116169
    136          1           0       22.325395    2.283018    0.854567
    137          1           0       20.908228    3.119942    1.185228
 ---------------------------------------------------------------------

 SCF Done:  E(RCAM-B3LYP) =  -2932.62483233     A.U. after   17 cycles

 Excitation energies and oscillator strengths:

 Excited State   1:      Singlet-A      2.1194 eV  585.00 nm  f=0.2079  <S**2>=0.000
     240 -> 243        0.27606
     241 -> 242        0.64474
 This state for optimization and/or second-order correction.
 Total Energy, E(TD-HF/TD-KS) =  -2932.54694617
 Copying the excited state density for this state as the 1-particle RhoCI density.

 The electronic state is 1-A.
 Alpha  occ. eigenvalues --  -46.84538 -19.28397 -19.25966 -19.22157 -19.21780
 Alpha  occ. eigenvalues --  -19.21250 -14.41726 -14.39757 -14.39249 -14.38158
 Alpha  occ. eigenvalues --  -10.40586 -10.39673 -10.36317 -10.31866 -10.30870
 Alpha  occ. eigenvalues --  -10.30596 -10.30555 -10.30091 -10.29683 -10.29354
 Alpha  occ. eigenvalues --  -10.29218 -10.28971 -10.28738 -10.28627 -10.28596
 Alpha  occ. eigenvalues --  -10.28582 -10.28271 -10.28159 -10.28090 -10.27844
 Alpha  occ. eigenvalues --  -10.27501 -10.27438 -10.27378 -10.27364 -10.27294
 Alpha  occ. eigenvalues --  -10.27282 -10.27122 -10.27117 -10.26988 -10.26986
 Alpha  occ. eigenvalues --  -10.26979 -10.26844 -10.26743 -10.26719 -10.26444
 Alpha  occ. eigenvalues --  -10.26327 -10.26206 -10.26060 -10.26041 -10.25949
 Alpha  occ. eigenvalues --  -10.25903 -10.25879 -10.25708 -10.25451 -10.25400
 Alpha  occ. eigenvalues --  -10.25311 -10.25289 -10.25173 -10.25155 -10.24954
 Alpha  occ. eigenvalues --  -10.24716 -10.24417 -10.24162 -10.23705 -10.22918
 Alpha  occ. eigenvalues --   -3.13555  -1.88264  -1.87789  -1.87733  -1.18220
 Alpha  occ. eigenvalues --   -1.17595  -1.11045  -1.10338  -1.07973  -1.05813
 Alpha  occ. eigenvalues --   -1.03889  -1.03741  -1.02236  -0.92734  -0.91981
 Alpha  occ. eigenvalues --   -0.91011  -0.90674  -0.89513  -0.88958  -0.88286
 Alpha  occ. eigenvalues --   -0.87997  -0.87763  -0.87448  -0.86994  -0.86798
 Alpha  occ. eigenvalues --   -0.85256  -0.84391  -0.83558  -0.83249  -0.82288
 Alpha  occ. eigenvalues --   -0.82117  -0.81374  -0.80325  -0.80157  -0.78109
 Alpha  occ. eigenvalues --   -0.77525  -0.76910  -0.76438  -0.76088  -0.75986
 Alpha  occ. eigenvalues --   -0.75698  -0.74908  -0.74768  -0.72804  -0.72435
 Alpha  occ. eigenvalues --   -0.71706  -0.70555  -0.70350  -0.68955  -0.68295
 Alpha  occ. eigenvalues --   -0.66910  -0.66606  -0.66103  -0.65860  -0.64826
 Alpha  occ. eigenvalues --   -0.64707  -0.63562  -0.63501  -0.62894  -0.62149
 Alpha  occ. eigenvalues --   -0.61842  -0.60564  -0.60169  -0.59829  -0.59396
 Alpha  occ. eigenvalues --   -0.58754  -0.58245  -0.58152  -0.57817  -0.56886
 Alpha  occ. eigenvalues --   -0.56286  -0.55336  -0.55220  -0.54900  -0.54771
 Alpha  occ. eigenvalues --   -0.54638  -0.54453  -0.54078  -0.53783  -0.53206
 Alpha  occ. eigenvalues --   -0.52994  -0.52571  -0.52461  -0.52179  -0.51825
 Alpha  occ. eigenvalues --   -0.51697  -0.51091  -0.51005  -0.50730  -0.50610
 Alpha  occ. eigenvalues --   -0.50525  -0.50330  -0.50041  -0.49587  -0.49431
 Alpha  occ. eigenvalues --   -0.48930  -0.48714  -0.48520  -0.48288  -0.48193
 Alpha  occ. eigenvalues --   -0.47920  -0.47683  -0.47625  -0.47277  -0.47053
 Alpha  occ. eigenvalues --   -0.46904  -0.46557  -0.46275  -0.46234  -0.46069
 Alpha  occ. eigenvalues --   -0.45986  -0.45685  -0.45593  -0.45472  -0.45385
 Alpha  occ. eigenvalues --   -0.45038  -0.44645  -0.44484  -0.44403  -0.44100
 Alpha  occ. eigenvalues --   -0.43996  -0.43752  -0.43418  -0.43346  -0.43089
 Alpha  occ. eigenvalues --   -0.43059  -0.42962  -0.42798  -0.42436  -0.42316
 Alpha  occ. eigenvalues --   -0.42166  -0.41917  -0.41755  -0.41293  -0.41226
 Alpha  occ. eigenvalues --   -0.40987  -0.40757  -0.40746  -0.40368  -0.40071
 Alpha  occ. eigenvalues --   -0.39977  -0.39910  -0.39506  -0.39301  -0.39189
 Alpha  occ. eigenvalues --   -0.39132  -0.38864  -0.38429  -0.38182  -0.37985
 Alpha  occ. eigenvalues --   -0.37381  -0.37187  -0.37078  -0.36947  -0.36761
 Alpha  occ. eigenvalues --   -0.36428  -0.36229  -0.36017  -0.35844  -0.35459
 Alpha  occ. eigenvalues --   -0.35228  -0.34904  -0.34733  -0.34508  -0.34455
 Alpha  occ. eigenvalues --   -0.33892  -0.32913  -0.32026  -0.31242  -0.30614
 Alpha  occ. eigenvalues --   -0.30243  -0.28949  -0.26919  -0.26462  -0.23043
 Alpha  occ. eigenvalues --   -0.20596
 Alpha virt. eigenvalues --   -0.05351  -0.03174   0.01171   0.03226   0.03723
 Alpha virt. eigenvalues --    0.04734   0.05359   0.05986   0.06521   0.07256
 Alpha virt. eigenvalues --    0.08370   0.10223   0.10973   0.11377   0.11699

 Mulliken charges:
               1
     1  Mg   0.817662
     2  C    0.006118
     3  C   -0.223444
     4  C   -0.179895
     5  C   -0.166283
     6  N   -0.622295
     7  C    0.297543
     8  C   -0.150559
     9  C   -0.139046
    10  C    0.342080
    11  C   -0.295830
    12  C   -0.175733
    13  C   -0.253060
    14  C    0.622868
    15  O   -0.463451
    16  O   -0.502608
    17  N   -0.739072
    18  C    0.367358
    19  C    0.011053
    20  C   -0.007747
    21  C    0.308023
    22  C   -0.369589
    23  C   -0.102017
    24  C   -0.251987
    25  N   -0.689794
    26  C    0.338296
    27  C    0.006974
    28  C   -0.033365
    29  C    0.285330
    30  C   -0.372924
    31  C   -0.203814
    32  C   -0.296440
    33  N   -0.738511
    34  C    0.243063
    35  C   -0.029717
    36  C    0.006116
    37  C    0.341639
    38  C   -0.343557
    39  C    0.401736
    40  O   -0.453695
    41  C   -0.304416
    42  C    0.643549
    43  O   -0.504221
    44  O   -0.442957
    45  C   -0.099111
    46  C    0.049971
    47  C   -0.150217
    48  C    0.118594
    49  C   -0.355885
    50  C   -0.210942
    51  C   -0.181937
    52  C   -0.162074
    53  C   -0.057233
    54  C   -0.296689
    55  C   -0.145551
    56  C   -0.184263
    57  C   -0.180062
    58  C   -0.056503
    59  C   -0.307437
    60  C   -0.163544
    61  C   -0.192967
    62  C   -0.143501
    63  C   -0.047663
    64  C   -0.335923
    65  C   -0.305980
    66  H    0.073786
    67  H    0.084812
    68  H    0.089075
    69  H    0.130287
    70  H    0.106423
    71  H    0.118246
    72  H    0.096413
    73  H    0.110421
    74  H    0.116187
    75  H    0.102685
    76  H    0.128784
    77  H    0.147220
    78  H    0.123876
    79  H    0.139103
    80  H    0.107256
    81  H    0.097674
    82  H    0.093253
    83  H    0.115438
    84  H    0.128083
    85  H    0.104492
    86  H    0.116956
    87  H    0.124352
    88  H    0.069605
    89  H    0.113841
    90  H    0.083640
    91  H    0.117245
    92  H    0.117004
    93  H    0.145027
    94  H    0.113069
    95  H    0.171646
    96  H    0.113693
    97  H    0.165851
    98  H    0.132154
    99  H    0.136009
   100  H    0.103258
   101  H    0.092154
   102  H    0.118950
   103  H    0.131929
   104  H    0.085534
   105  H    0.084922
   106  H    0.071885
   107  H    0.123339
   108  H    0.078033
   109  H    0.087656
   110  H    0.076583
   111  H    0.065023
   112  H    0.102996
   113  H    0.094970
   114  H    0.079917
   115  H    0.088997
   116  H    0.079365
   117  H    0.110799
   118  H    0.085479
   119  H    0.102747
   120  H    0.057608
   121  H    0.073276
   122  H    0.107135
   123  H    0.093706
   124  H    0.105303
   125  H    0.094953
   126  H    0.097782
   127  H    0.077741
   128  H    0.095252
   129  H    0.094464
   130  H    0.027657
   131  H    0.104730
   132  H    0.093953
   133  H    0.096489
   134  H    0.115649
   135  H    0.108884
   136  H    0.077546
   137  H    0.105270
 Sum of Mulliken charges =   0.00000

 Dipole moment (field-independent basis, Debye):
    X=              3.6685    Y=              3.0350    Z=              0.2166  Tot=              4.7662
 Quadrupole moment (field-independent basis, Debye-Ang):
   XX=           -378.0167   YY=           -395.3813   ZZ=           -397.9100
   XY=             -5.5855   XZ=              1.8346   YZ=             -4.7913

 Normal termination of Gaussian 09 at Fri Jun 28 20:01:34 2019.
