 Gaussian 09, Revision D.01,
 Gaussian 09:  ES64L-G09RevD.01 24-Apr-2013

 -------------------------------------
 # td=(NStates=1) CAM-B3LYP/6-31G(d,p)
 -------------------------------------

 --
 TD
 --
 Symbolic Z-matrix:
 Charge =  0 Multiplicity = 1

                         Standard orientation:
 ---------------------------------------------------------------------
 Center     Atomic      Atomic             Coordinates (Angstroms)
 Number     Number       Type             X           Y           Z
 ---------------------------------------------------------------------
      1         12           0       -7.152958    0.630492    0.057543
      2          6           0       -4.790207   -1.888537    0.549058
      3          6           0       -4.802965    2.854412    0.959748
      4          6           0       -9.440693    3.069421   -0.309853
      5          6           0       -9.507351   -1.764144   -0.887493
      6          7           0       -5.068443    0.510738    0.674824
      7          6           0       -4.342573   -0.642926    0.732194
      8          6           0       -2.888341   -0.358138    1.167951
      9          6           0       -2.995951    1.156347    1.609671
     10          6           0       -4.359317    1.615050    1.060616
     11          6           0       -2.865770    1.315193    3.187932
     12          6           0       -1.810600   -0.562014    0.154864
     13          6           0       -0.467430   -0.427122    0.650112
     14          6           0        0.540718   -0.773188   -0.435458
     15          8           0        0.234751   -1.122382   -1.550580
     16          8           0        1.808690   -0.414809   -0.039207
     17          7           0       -7.133580    2.630751    0.335125
     18          6           0       -6.048619    3.413358    0.716093
     19          6           0       -6.488231    4.801727    0.848698
     20          6           0       -7.789683    4.815528    0.415831
     21          6           0       -8.205851    3.480649    0.074889
     22          6           0       -5.586731    5.860489    1.395454
     23          6           0       -8.736174    6.043992    0.385608
     24          6           0       -8.273057    7.175135    0.091871
     25          7           0       -9.186330    0.529748   -0.499656
     26          6           0       -9.867974    1.764573   -0.596591
     27          6           0      -11.240323    1.406132   -1.035992
     28          6           0      -11.239520    0.030508   -1.143850
     29          6           0       -9.993507   -0.465386   -0.802811
     30          6           0      -12.335196    2.261871   -1.320325
     31          6           0      -12.411227   -0.818652   -1.733624
     32          6           0      -12.381459   -1.054768   -3.302855
     33          7           0       -7.137588   -1.427806   -0.292593
     34          6           0       -8.207841   -2.209118   -0.614027
     35          6           0       -7.760442   -3.590481   -0.497541
     36          6           0       -6.414330   -3.471123   -0.056576
     37          6           0       -6.121984   -2.073522    0.068901
     38          6           0       -8.604306   -4.813262   -0.743341
     39          6           0       -5.271941   -4.341848    0.136314
     40          8           0       -5.268780   -5.561902    0.255505
     41          6           0       -4.131472   -3.346355    0.638310
     42          6           0       -3.459177   -3.602728    1.893716
     43          8           0       -3.709533   -3.038922    2.941817
     44          8           0       -2.787567   -4.779888    1.772308
     45          6           0       -2.228535   -5.297374    2.950725
     46          6           0        2.825053   -0.778398   -1.022692
     47          6           0        4.188006   -0.497239   -0.450489
     48          6           0        5.127094    0.246852   -1.043583
     49          6           0        4.929093    1.041350   -2.297682
     50          6           0        6.441981    0.484956   -0.388795
     51          6           0        7.665257    0.010748   -1.122901
     52          6           0        8.989198    0.101324   -0.231757
     53          6           0       10.181858   -0.505925   -0.960039
     54          6           0       10.050123   -1.983783   -1.465424
     55          6           0       11.421892   -0.228506   -0.035343
     56          6           0       12.803302   -0.577093   -0.710309
     57          6           0       13.910797   -0.212196    0.161824
     58          6           0       15.347721   -0.189913   -0.528008
     59          6           0       15.811348   -1.650379   -1.114889
     60          6           0       16.368979    0.417506    0.499612
     61          6           0       17.796179    0.662187   -0.147818
     62          6           0       18.826180    1.217229    0.883088
     63          6           0       20.198479    1.301519    0.285944
     64          6           0       20.359410    2.257556   -0.970782
     65          6           0       21.128967    1.793648    1.395190
     66          1           0       -4.050870    3.519547    1.384723
     67          1           0      -10.179880    3.846920   -0.429748
     68          1           0      -10.223774   -2.375668   -1.282003
     69          1           0       -2.817325   -1.070280    1.950407
     70          1           0       -2.320549    1.908828    1.111942
     71          1           0       -1.838618    0.928898    3.324330
     72          1           0       -3.198282    2.184586    3.634127
     73          1           0       -3.396735    0.358709    3.528026
     74          1           0       -1.909650   -1.686908   -0.359782
     75          1           0       -1.801218    0.258570   -0.588706
     76          1           0       -0.164118    0.597562    0.978319
     77          1           0       -0.388074   -0.911394    1.426623
     78          1           0       -5.037681    6.310698    0.647794
     79          1           0       -6.295527    6.532385    2.120238
     80          1           0       -5.035412    5.391304    2.149001
     81          1           0       -9.743336    5.908814    0.579111
     82          1           0       -9.104358    7.983820    0.147902
     83          1           0       -7.256763    7.520193   -0.669015
     84          1           0      -12.116239    3.007859   -1.990223
     85          1           0      -13.346570    1.682976   -1.378211
     86          1           0      -12.507998    3.079847   -0.501097
     87          1           0      -12.355617   -1.883922   -1.265704
     88          1           0      -13.317611   -0.407323   -1.743097
     89          1           0      -13.351908   -1.620479   -3.695206
     90          1           0      -12.247624    0.062854   -3.567324
     91          1           0      -11.591923   -1.627014   -3.741272
     92          1           0       -9.026415   -4.829473   -1.817022
     93          1           0       -8.116499   -5.824051   -0.527927
     94          1           0       -9.476040   -4.687316    0.100305
     95          1           0       -3.362679   -3.457091   -0.298651
     96          1           0       -1.402847   -4.520992    3.402810
     97          1           0       -3.083206   -5.551570    3.584974
     98          1           0       -1.663753   -6.145431    2.760011
     99          1           0        2.777180   -1.760610   -1.444979
    100          1           0        2.634558   -0.138149   -1.915660
    101          1           0        4.584033   -1.083383    0.434998
    102          1           0        3.761283    1.303018   -2.482434
    103          1           0        5.474214    2.018400   -2.231042
    104          1           0        5.446223    0.475719   -3.201227
    105          1           0        6.620646    1.530323   -0.169781
    106          1           0        6.326254    0.048734    0.621378
    107          1           0        7.494270   -1.026376   -1.459422
    108          1           0        7.833122    0.422511   -2.137590
    109          1           0        9.114021    1.178490   -0.047038
    110          1           0        8.673044   -0.126742    0.700250
    111          1           0       10.515825   -0.083219   -1.882941
    112          1           0        9.284236   -2.080216   -2.263397
    113          1           0       11.049944   -2.432671   -1.820407
    114          1           0        9.710585   -2.610160   -0.693501
    115          1           0       11.506719    0.831406    0.388004
    116          1           0       11.404903   -0.848160    0.902342
    117          1           0       12.893282   -1.526899   -1.095296
    118          1           0       12.876194    0.208108   -1.679830
    119          1           0       13.853569    0.813172    0.420277
    120          1           0       13.809427   -0.760186    1.123370
    121          1           0       15.263158    0.513917   -1.582235
    122          1           0       15.784006   -2.600352   -0.443459
    123          1           0       15.093319   -2.143448   -1.819663
    124          1           0       16.823447   -1.537150   -1.704626
    125          1           0       16.106120    1.300450    1.077101
    126          1           0       16.632937   -0.461856    1.479659
    127          1           0       18.285344   -0.318361   -0.715634
    128          1           0       17.674049    1.485283   -0.705127
    129          1           0       18.444184    2.122879    1.095132
    130          1           0       18.916134    0.632991    1.899326
    131          1           0       20.491761    0.167421   -0.127062
    132          1           0       19.880580    3.277509   -0.531429
    133          1           0       21.350991    2.186996   -1.298728
    134          1           0       19.755025    1.906089   -1.691779
    135          1           0       21.015225    1.043173    2.254172
    136          1           0       22.141022    2.066976    1.057824
    137          1           0       20.667719    2.741375    1.801455
 ---------------------------------------------------------------------

 SCF Done:  E(RCAM-B3LYP) =  -2932.64342434     A.U. after   15 cycles

 Excitation energies and oscillator strengths:

 Excited State   1:      Singlet-A      2.1215 eV  584.43 nm  f=0.2438  <S**2>=0.000
     240 -> 243       -0.24581
     241 -> 242        0.65596
 This state for optimization and/or second-order correction.
 Total Energy, E(TD-HF/TD-KS) =  -2932.56546186
 Copying the excited state density for this state as the 1-particle RhoCI density.

 The electronic state is 1-A.
 Alpha  occ. eigenvalues --  -46.84644 -19.26283 -19.26217 -19.21489 -19.21381
 Alpha  occ. eigenvalues --  -19.20296 -14.40577 -14.39233 -14.38965 -14.38910
 Alpha  occ. eigenvalues --  -10.39352 -10.39242 -10.35223 -10.31636 -10.31386
 Alpha  occ. eigenvalues --  -10.30269 -10.30024 -10.29881 -10.29761 -10.29438
 Alpha  occ. eigenvalues --  -10.29143 -10.29107 -10.28690 -10.28553 -10.28334
 Alpha  occ. eigenvalues --  -10.28222 -10.28045 -10.27857 -10.27805 -10.27677
 Alpha  occ. eigenvalues --  -10.27420 -10.27336 -10.27201 -10.27190 -10.27039
 Alpha  occ. eigenvalues --  -10.26878 -10.26733 -10.26680 -10.26611 -10.26585
 Alpha  occ. eigenvalues --  -10.26575 -10.26552 -10.26547 -10.26383 -10.26188
 Alpha  occ. eigenvalues --  -10.26165 -10.26067 -10.26050 -10.25974 -10.25945
 Alpha  occ. eigenvalues --  -10.25805 -10.25523 -10.25487 -10.25461 -10.25273
 Alpha  occ. eigenvalues --  -10.25251 -10.25223 -10.25148 -10.25120 -10.24925
 Alpha  occ. eigenvalues --  -10.24677 -10.24515 -10.24486 -10.24430 -10.24416
 Alpha  occ. eigenvalues --   -3.13489  -1.88222  -1.87741  -1.87627  -1.18455
 Alpha  occ. eigenvalues --   -1.17507  -1.10252  -1.09836  -1.09493  -1.06013
 Alpha  occ. eigenvalues --   -1.03354  -1.03109  -1.02031  -0.92108  -0.91644
 Alpha  occ. eigenvalues --   -0.91208  -0.89919  -0.89459  -0.89416  -0.89236
 Alpha  occ. eigenvalues --   -0.88426  -0.87552  -0.87516  -0.87161  -0.85740
 Alpha  occ. eigenvalues --   -0.85160  -0.84501  -0.84174  -0.83322  -0.83074
 Alpha  occ. eigenvalues --   -0.82023  -0.81184  -0.80425  -0.79289  -0.78232
 Alpha  occ. eigenvalues --   -0.77910  -0.77449  -0.76153  -0.76088  -0.75987
 Alpha  occ. eigenvalues --   -0.75370  -0.74695  -0.74018  -0.73346  -0.72726
 Alpha  occ. eigenvalues --   -0.71875  -0.70049  -0.68789  -0.68516  -0.68366
 Alpha  occ. eigenvalues --   -0.66977  -0.66488  -0.65271  -0.64830  -0.64820
 Alpha  occ. eigenvalues --   -0.64314  -0.64013  -0.63700  -0.62327  -0.61871
 Alpha  occ. eigenvalues --   -0.60946  -0.60797  -0.60193  -0.59539  -0.59112
 Alpha  occ. eigenvalues --   -0.59026  -0.58678  -0.58032  -0.57034  -0.56879
 Alpha  occ. eigenvalues --   -0.56295  -0.56062  -0.55229  -0.54774  -0.54528
 Alpha  occ. eigenvalues --   -0.54190  -0.54146  -0.54035  -0.53713  -0.52903
 Alpha  occ. eigenvalues --   -0.52815  -0.52613  -0.52468  -0.52153  -0.51890
 Alpha  occ. eigenvalues --   -0.51568  -0.51491  -0.51222  -0.50980  -0.50778
 Alpha  occ. eigenvalues --   -0.50747  -0.50497  -0.50066  -0.49988  -0.49436
 Alpha  occ. eigenvalues --   -0.49239  -0.48995  -0.48829  -0.48300  -0.48251
 Alpha  occ. eigenvalues --   -0.48212  -0.48033  -0.47648  -0.47118  -0.46893
 Alpha  occ. eigenvalues --   -0.46799  -0.46668  -0.46471  -0.46035  -0.45890
 Alpha  occ. eigenvalues --   -0.45765  -0.45458  -0.45427  -0.44912  -0.44851
 Alpha  occ. eigenvalues --   -0.44721  -0.44570  -0.44042  -0.43975  -0.43850
 Alpha  occ. eigenvalues --   -0.43675  -0.43478  -0.43404  -0.43331  -0.43200
 Alpha  occ. eigenvalues --   -0.43105  -0.42860  -0.42653  -0.42496  -0.42198
 Alpha  occ. eigenvalues --   -0.42127  -0.41745  -0.41700  -0.41443  -0.41357
 Alpha  occ. eigenvalues --   -0.40869  -0.40703  -0.40616  -0.40250  -0.40167
 Alpha  occ. eigenvalues --   -0.39675  -0.39638  -0.39485  -0.39191  -0.38981
 Alpha  occ. eigenvalues --   -0.38767  -0.38228  -0.37901  -0.37718  -0.37572
 Alpha  occ. eigenvalues --   -0.37528  -0.37066  -0.36933  -0.36389  -0.36300
 Alpha  occ. eigenvalues --   -0.36299  -0.35935  -0.35835  -0.35645  -0.35332
 Alpha  occ. eigenvalues --   -0.35223  -0.34959  -0.34914  -0.34189  -0.34091
 Alpha  occ. eigenvalues --   -0.33105  -0.32421  -0.32173  -0.31306  -0.30021
 Alpha  occ. eigenvalues --   -0.29931  -0.28870  -0.28539  -0.27362  -0.23349
 Alpha  occ. eigenvalues --   -0.21540
 Alpha virt. eigenvalues --   -0.06398  -0.02886   0.01888   0.04293   0.05150
 Alpha virt. eigenvalues --    0.06158   0.06273   0.06359   0.06736   0.07109
 Alpha virt. eigenvalues --    0.09014   0.10847   0.11113   0.11545   0.11636

 Mulliken charges:
               1
     1  Mg   0.811262
     2  C    0.080254
     3  C   -0.224233
     4  C   -0.162158
     5  C   -0.134046
     6  N   -0.656014
     7  C    0.286902
     8  C   -0.172489
     9  C   -0.166950
    10  C    0.362071
    11  C   -0.309773
    12  C   -0.153894
    13  C   -0.243162
    14  C    0.610989
    15  O   -0.460034
    16  O   -0.490742
    17  N   -0.739472
    18  C    0.324013
    19  C    0.007596
    20  C   -0.023887
    21  C    0.329919
    22  C   -0.351455
    23  C   -0.049718
    24  C   -0.222927
    25  N   -0.711753
    26  C    0.268538
    27  C    0.062522
    28  C   -0.007723
    29  C    0.323389
    30  C   -0.404498
    31  C   -0.227092
    32  C   -0.308093
    33  N   -0.739745
    34  C    0.266784
    35  C    0.041579
    36  C   -0.060530
    37  C    0.373633
    38  C   -0.372777
    39  C    0.370433
    40  O   -0.452407
    41  C   -0.311994
    42  C    0.649768
    43  O   -0.473557
    44  O   -0.447914
    45  C   -0.069987
    46  C    0.007374
    47  C   -0.149771
    48  C    0.148287
    49  C   -0.357845
    50  C   -0.236656
    51  C   -0.194729
    52  C   -0.175364
    53  C   -0.047564
    54  C   -0.327904
    55  C   -0.184605
    56  C   -0.166264
    57  C   -0.168273
    58  C   -0.037367
    59  C   -0.318168
    60  C   -0.157018
    61  C   -0.174990
    62  C   -0.162168
    63  C   -0.054284
    64  C   -0.298694
    65  C   -0.295334
    66  H    0.064994
    67  H    0.084004
    68  H    0.085861
    69  H    0.127405
    70  H    0.098137
    71  H    0.112607
    72  H    0.120586
    73  H    0.125510
    74  H    0.095035
    75  H    0.109031
    76  H    0.131815
    77  H    0.128042
    78  H    0.135844
    79  H    0.107990
    80  H    0.125337
    81  H    0.107302
    82  H    0.081416
    83  H    0.097665
    84  H    0.136296
    85  H    0.115705
    86  H    0.094819
    87  H    0.085421
    88  H    0.114386
    89  H    0.087558
    90  H    0.100833
    91  H    0.112361
    92  H    0.121059
    93  H    0.149619
    94  H    0.110237
    95  H    0.148288
    96  H    0.093013
    97  H    0.134669
    98  H    0.131783
    99  H    0.138464
   100  H    0.115528
   101  H    0.085305
   102  H    0.102838
   103  H    0.113676
   104  H    0.112240
   105  H    0.105892
   106  H    0.092240
   107  H    0.091969
   108  H    0.091901
   109  H    0.092460
   110  H    0.107835
   111  H    0.102801
   112  H    0.104223
   113  H    0.096116
   114  H    0.111188
   115  H    0.087133
   116  H    0.081240
   117  H    0.105128
   118  H    0.046876
   119  H    0.097358
   120  H    0.092560
   121  H    0.059939
   122  H    0.093139
   123  H    0.097202
   124  H    0.095784
   125  H    0.100057
   126  H    0.038936
   127  H    0.076742
   128  H    0.112018
   129  H    0.095398
   130  H    0.073853
   131  H    0.049412
   132  H    0.075965
   133  H    0.112582
   134  H    0.116801
   135  H    0.094366
   136  H    0.097783
   137  H    0.091131
 Sum of Mulliken charges =   0.00000

 Dipole moment (field-independent basis, Debye):
    X=              1.4860    Y=              4.5902    Z=              0.0810  Tot=              4.8254
 Quadrupole moment (field-independent basis, Debye-Ang):
   XX=           -360.9872   YY=           -388.7867   ZZ=           -399.9305
   XY=            -22.2171   XZ=              5.3309   YZ=             -0.3276

 Normal termination of Gaussian 09 at Fri Jun 28 16:44:13 2019.
