 Gaussian 09, Revision D.01,
 Gaussian 09:  ES64L-G09RevD.01 24-Apr-2013

 -------------------------------------
 # td=(NStates=1) CAM-B3LYP/6-31G(d,p)
 -------------------------------------

 --
 TD
 --
 Symbolic Z-matrix:
 Charge =  0 Multiplicity = 1

                         Standard orientation:
 ---------------------------------------------------------------------
 Center     Atomic      Atomic             Coordinates (Angstroms)
 Number     Number       Type             X           Y           Z
 ---------------------------------------------------------------------
      1         12           0       -7.161296    0.651320    0.121115
      2          6           0       -4.846675   -1.927528    0.587790
      3          6           0       -4.808205    2.939961    1.224644
      4          6           0       -9.362037    3.125274   -0.300128
      5          6           0       -9.599565   -1.690922   -0.784859
      6          7           0       -5.093838    0.484625    0.680880
      7          6           0       -4.328291   -0.619053    0.786094
      8          6           0       -2.855320   -0.321074    1.185162
      9          6           0       -2.964908    1.056942    1.785983
     10          6           0       -4.391881    1.562398    1.218898
     11          6           0       -2.892754    1.249030    3.283244
     12          6           0       -1.943275   -0.516747    0.028899
     13          6           0       -0.452454   -0.434666    0.407670
     14          6           0        0.536736   -0.797607   -0.782894
     15          8           0        0.212421   -1.223932   -1.867477
     16          8           0        1.811142   -0.505335   -0.366300
     17          7           0       -7.101729    2.654528    0.384203
     18          6           0       -6.014667    3.401151    0.801507
     19          6           0       -6.497687    4.757122    0.846266
     20          6           0       -7.769933    4.838014    0.445046
     21          6           0       -8.225502    3.495268    0.114787
     22          6           0       -5.578405    5.815683    1.254397
     23          6           0       -8.625981    6.011393    0.381873
     24          6           0       -8.275008    7.238970    0.033770
     25          7           0       -9.131950    0.656983   -0.531892
     26          6           0       -9.888341    1.796523   -0.706401
     27          6           0      -11.209031    1.467213   -1.074834
     28          6           0      -11.236193    0.134695   -1.241377
     29          6           0       -9.906229   -0.323406   -0.918366
     30          6           0      -12.412223    2.432174   -1.296132
     31          6           0      -12.268629   -0.825213   -1.724197
     32          6           0      -12.257342   -1.079754   -3.269965
     33          7           0       -7.212616   -1.389706   -0.215327
     34          6           0       -8.323809   -2.283965   -0.399182
     35          6           0       -7.887162   -3.648792   -0.428898
     36          6           0       -6.550583   -3.542934   -0.071073
     37          6           0       -6.215163   -2.241347    0.143645
     38          6           0       -8.648470   -4.844171   -0.787508
     39          6           0       -5.356193   -4.391444    0.245089
     40          8           0       -5.165415   -5.613941    0.205064
     41          6           0       -4.262718   -3.295119    0.559357
     42          6           0       -3.583439   -3.700508    1.873996
     43          8           0       -3.809971   -3.012661    2.843918
     44          8           0       -2.684280   -4.759538    1.776403
     45          6           0       -2.276153   -5.341518    2.885524
     46          6           0        2.857311   -0.763150   -1.336157
     47          6           0        4.177556   -0.456952   -0.670143
     48          6           0        5.280245    0.217537   -1.106470
     49          6           0        5.308347    1.122724   -2.240788
     50          6           0        6.414839    0.385315   -0.189854
     51          6           0        7.655025   -0.255341   -0.895393
     52          6           0        8.958227   -0.111068   -0.107797
     53          6           0       10.125758   -0.479846   -0.836264
     54          6           0       10.193761   -1.970231   -1.312918
     55          6           0       11.360561   -0.210061    0.059778
     56          6           0       12.795277   -0.355499   -0.720091
     57          6           0       13.990635   -0.043994    0.181130
     58          6           0       15.346394   -0.135407   -0.474529
     59          6           0       15.692309   -1.613395   -0.717589
     60          6           0       16.437292    0.643313    0.318997
     61          6           0       17.851247    0.591521   -0.237749
     62          6           0       18.757829    1.254175    0.767861
     63          6           0       20.182231    1.227824    0.300411
     64          6           0       20.346321    2.059041   -0.952060
     65          6           0       21.145831    1.764708    1.405127
     66          1           0       -4.033488    3.523936    1.744409
     67          1           0      -10.145578    3.873465   -0.534496
     68          1           0      -10.421649   -2.587420   -0.923249
     69          1           0       -2.457944   -0.863243    1.942107
     70          1           0       -2.320391    1.713166    1.344519
     71          1           0       -1.953908    1.129872    3.665080
     72          1           0       -3.180268    2.368543    3.556873
     73          1           0       -3.616163    0.693209    3.874668
     74          1           0       -2.082300   -1.510092   -0.330899
     75          1           0       -2.169346    0.215667   -0.783694
     76          1           0       -0.532930    0.651873    0.608115
     77          1           0       -0.315688   -1.070812    1.269838
     78          1           0       -4.999695    6.398492    0.513445
     79          1           0       -6.161086    6.480156    1.774607
     80          1           0       -4.996088    5.332708    2.045262
     81          1           0       -9.625235    5.958761    0.555084
     82          1           0       -9.022791    8.241527    0.053739
     83          1           0       -7.325630    7.727996   -0.247581
     84          1           0      -12.270099    2.946644   -2.244331
     85          1           0      -13.259776    1.796081   -1.242311
     86          1           0      -12.762193    3.086140   -0.646003
     87          1           0      -12.083040   -1.683389   -1.223253
     88          1           0      -13.381839   -0.395854   -1.589740
     89          1           0      -13.218174   -1.829182   -3.330149
     90          1           0      -12.530711   -0.182066   -3.924806
     91          1           0      -11.320586   -1.466807   -3.542686
     92          1           0       -9.077796   -4.798280   -1.661597
     93          1           0       -7.779020   -5.543866   -0.891629
     94          1           0       -9.484430   -5.090666   -0.033248
     95          1           0       -3.430861   -3.432560   -0.236289
     96          1           0       -1.522500   -4.736016    3.339851
     97          1           0       -3.189149   -5.552202    3.457784
     98          1           0       -1.936772   -6.218039    2.570861
     99          1           0        2.835331   -1.894356   -1.714637
    100          1           0        2.671671   -0.147324   -2.006733
    101          1           0        4.220839   -0.861762    0.359516
    102          1           0        4.310806    1.157842   -2.729450
    103          1           0        5.524801    2.192303   -1.987168
    104          1           0        6.186601    0.886569   -2.967144
    105          1           0        6.674274    1.490964    0.070082
    106          1           0        6.417984   -0.134525    0.595555
    107          1           0        7.354374   -1.340469   -0.921128
    108          1           0        7.691562    0.292460   -1.848111
    109          1           0        9.110348    1.028524    0.291878
    110          1           0        8.763511   -0.798622    0.778450
    111          1           0       10.245978    0.106962   -1.843036
    112          1           0        9.572067   -2.148887   -2.322463
    113          1           0       11.138786   -2.284567   -1.499879
    114          1           0        9.779842   -2.711916   -0.560036
    115          1           0       11.511769    0.769110    0.623145
    116          1           0       11.493363   -0.971946    0.830637
    117          1           0       13.051602   -1.387424   -1.282777
    118          1           0       12.702866    0.160545   -1.711648
    119          1           0       13.695913    1.005163    0.708744
    120          1           0       13.989878   -0.719569    1.125167
    121          1           0       15.317831    0.462627   -1.495212
    122          1           0       16.092391   -2.335805    0.140682
    123          1           0       14.963137   -2.329715   -1.273351
    124          1           0       16.504048   -1.546664   -1.566426
    125          1           0       16.008723    1.639622    0.455243
    126          1           0       16.405627    0.041743    1.346972
    127          1           0       18.325922   -0.411399   -0.420318
    128          1           0       18.025576    1.180058   -1.228817
    129          1           0       18.540162    2.270317    0.772477
    130          1           0       18.599909    0.997898    1.771737
    131          1           0       20.488796    0.183784   -0.050157
    132          1           0       19.787599    3.166926   -0.757051
    133          1           0       21.295285    2.148488   -1.209909
    134          1           0       19.812615    1.830843   -1.972344
    135          1           0       20.964612    1.259316    2.295686
    136          1           0       22.288218    1.857994    1.282629
    137          1           0       20.850756    2.776009    1.317636
 ---------------------------------------------------------------------

 SCF Done:  E(RCAM-B3LYP) =  -2932.66178229     A.U. after   17 cycles

 Excitation energies and oscillator strengths:

 Excited State   1:      Singlet-A      2.2606 eV  548.45 nm  f=0.1567  <S**2>=0.000
     240 -> 242       -0.25007
     240 -> 243        0.26233
     241 -> 242        0.56430
     241 -> 243        0.19915
 This state for optimization and/or second-order correction.
 Total Energy, E(TD-HF/TD-KS) =  -2932.57870630
 Copying the excited state density for this state as the 1-particle RhoCI density.

 The electronic state is 1-A.
 Alpha  occ. eigenvalues --  -46.84312 -19.26389 -19.25139 -19.21969 -19.20985
 Alpha  occ. eigenvalues --  -19.20400 -14.42043 -14.39263 -14.39035 -14.38751
 Alpha  occ. eigenvalues --  -10.40186 -10.39014 -10.35340 -10.32456 -10.31373
 Alpha  occ. eigenvalues --  -10.30991 -10.30317 -10.30027 -10.29299 -10.28667
 Alpha  occ. eigenvalues --  -10.28646 -10.28488 -10.28402 -10.28053 -10.28024
 Alpha  occ. eigenvalues --  -10.28006 -10.27723 -10.27562 -10.27431 -10.27062
 Alpha  occ. eigenvalues --  -10.27034 -10.26912 -10.26875 -10.26794 -10.26764
 Alpha  occ. eigenvalues --  -10.26702 -10.26531 -10.26529 -10.26499 -10.26487
 Alpha  occ. eigenvalues --  -10.26469 -10.26334 -10.26299 -10.26294 -10.26225
 Alpha  occ. eigenvalues --  -10.26175 -10.26165 -10.26154 -10.26113 -10.25991
 Alpha  occ. eigenvalues --  -10.25969 -10.25848 -10.25782 -10.25619 -10.25379
 Alpha  occ. eigenvalues --  -10.25377 -10.25321 -10.25074 -10.25021 -10.24760
 Alpha  occ. eigenvalues --  -10.24666 -10.24351 -10.24221 -10.24105 -10.23066
 Alpha  occ. eigenvalues --   -3.13241  -1.87961  -1.87501  -1.87386  -1.18464
 Alpha  occ. eigenvalues --   -1.17636  -1.10614  -1.09899  -1.09548  -1.04861
 Alpha  occ. eigenvalues --   -1.03630  -1.02559  -1.02003  -0.92246  -0.91541
 Alpha  occ. eigenvalues --   -0.91242  -0.91027  -0.90035  -0.89947  -0.89628
 Alpha  occ. eigenvalues --   -0.88633  -0.88601  -0.87569  -0.86993  -0.86193
 Alpha  occ. eigenvalues --   -0.85210  -0.84229  -0.83636  -0.83260  -0.82973
 Alpha  occ. eigenvalues --   -0.81793  -0.81328  -0.80497  -0.79616  -0.78529
 Alpha  occ. eigenvalues --   -0.78254  -0.77858  -0.76381  -0.76074  -0.75806
 Alpha  occ. eigenvalues --   -0.75749  -0.74677  -0.74338  -0.73266  -0.72299
 Alpha  occ. eigenvalues --   -0.71878  -0.70402  -0.69483  -0.68904  -0.67732
 Alpha  occ. eigenvalues --   -0.66726  -0.66432  -0.65708  -0.65233  -0.64122
 Alpha  occ. eigenvalues --   -0.63855  -0.63398  -0.63373  -0.62628  -0.61724
 Alpha  occ. eigenvalues --   -0.61418  -0.61016  -0.60608  -0.60482  -0.59701
 Alpha  occ. eigenvalues --   -0.59064  -0.58452  -0.57639  -0.57281  -0.57126
 Alpha  occ. eigenvalues --   -0.56713  -0.55963  -0.55770  -0.55725  -0.55320
 Alpha  occ. eigenvalues --   -0.55235  -0.54630  -0.54340  -0.53749  -0.53418
 Alpha  occ. eigenvalues --   -0.52983  -0.52823  -0.52547  -0.52325  -0.52125
 Alpha  occ. eigenvalues --   -0.52025  -0.51608  -0.51347  -0.51215  -0.50846
 Alpha  occ. eigenvalues --   -0.50685  -0.50325  -0.50111  -0.49784  -0.49573
 Alpha  occ. eigenvalues --   -0.49176  -0.49073  -0.48838  -0.48699  -0.48419
 Alpha  occ. eigenvalues --   -0.48264  -0.47951  -0.47791  -0.47607  -0.47290
 Alpha  occ. eigenvalues --   -0.47106  -0.46859  -0.46566  -0.46233  -0.45993
 Alpha  occ. eigenvalues --   -0.45755  -0.45471  -0.45375  -0.45260  -0.45155
 Alpha  occ. eigenvalues --   -0.44923  -0.44552  -0.44377  -0.44029  -0.43865
 Alpha  occ. eigenvalues --   -0.43668  -0.43574  -0.43271  -0.43237  -0.43148
 Alpha  occ. eigenvalues --   -0.42903  -0.42623  -0.42559  -0.42356  -0.42123
 Alpha  occ. eigenvalues --   -0.41978  -0.41698  -0.41239  -0.41196  -0.40948
 Alpha  occ. eigenvalues --   -0.40893  -0.40738  -0.40573  -0.40213  -0.40130
 Alpha  occ. eigenvalues --   -0.39968  -0.39687  -0.39585  -0.39517  -0.39385
 Alpha  occ. eigenvalues --   -0.38929  -0.38765  -0.38445  -0.38104  -0.37820
 Alpha  occ. eigenvalues --   -0.37705  -0.37513  -0.37200  -0.36806  -0.36764
 Alpha  occ. eigenvalues --   -0.36549  -0.36225  -0.35965  -0.35786  -0.35561
 Alpha  occ. eigenvalues --   -0.35237  -0.35139  -0.34918  -0.34211  -0.33523
 Alpha  occ. eigenvalues --   -0.33139  -0.33089  -0.32444  -0.30594  -0.29737
 Alpha  occ. eigenvalues --   -0.29083  -0.29012  -0.28583  -0.28024  -0.23320
 Alpha  occ. eigenvalues --   -0.21691
 Alpha virt. eigenvalues --   -0.05793  -0.03509   0.01919   0.04351   0.05083
 Alpha virt. eigenvalues --    0.05959   0.06204   0.06448   0.07066   0.07593
 Alpha virt. eigenvalues --    0.08003   0.10656   0.11371   0.12051   0.12187

 Mulliken charges:
               1
     1  Mg   0.815699
     2  C    0.123501
     3  C   -0.228609
     4  C   -0.218581
     5  C   -0.180620
     6  N   -0.622977
     7  C    0.287658
     8  C   -0.115675
     9  C   -0.137613
    10  C    0.288362
    11  C   -0.312169
    12  C   -0.183089
    13  C   -0.267250
    14  C    0.605267
    15  O   -0.454099
    16  O   -0.488571
    17  N   -0.775600
    18  C    0.393059
    19  C   -0.021392
    20  C    0.049865
    21  C    0.381011
    22  C   -0.365174
    23  C   -0.082705
    24  C   -0.235553
    25  N   -0.658850
    26  C    0.239314
    27  C   -0.012299
    28  C    0.044393
    29  C    0.303758
    30  C   -0.360387
    31  C   -0.227155
    32  C   -0.291518
    33  N   -0.689597
    34  C    0.192335
    35  C    0.042017
    36  C   -0.010292
    37  C    0.259811
    38  C   -0.370803
    39  C    0.389698
    40  O   -0.477343
    41  C   -0.366648
    42  C    0.612518
    43  O   -0.450689
    44  O   -0.442214
    45  C   -0.068113
    46  C    0.062997
    47  C   -0.173313
    48  C    0.149332
    49  C   -0.371383
    50  C   -0.196170
    51  C   -0.199636
    52  C   -0.150354
    53  C   -0.033864
    54  C   -0.315275
    55  C   -0.183437
    56  C   -0.186336
    57  C   -0.153621
    58  C   -0.057891
    59  C   -0.307774
    60  C   -0.161939
    61  C   -0.176111
    62  C   -0.151743
    63  C   -0.077869
    64  C   -0.294477
    65  C   -0.308447
    66  H    0.092869
    67  H    0.091098
    68  H    0.096968
    69  H    0.116072
    70  H    0.109016
    71  H    0.123411
    72  H    0.087503
    73  H    0.135810
    74  H    0.122520
    75  H    0.107982
    76  H    0.130548
    77  H    0.133859
    78  H    0.127370
    79  H    0.126100
    80  H    0.107361
    81  H    0.104093
    82  H    0.075040
    83  H    0.109096
    84  H    0.123429
    85  H    0.111111
    86  H    0.124123
    87  H    0.112865
    88  H    0.085069
    89  H    0.082003
    90  H    0.108130
    91  H    0.120661
    92  H    0.136736
    93  H    0.145909
    94  H    0.119239
    95  H    0.159365
    96  H    0.105152
    97  H    0.109271
    98  H    0.126022
    99  H    0.120215
   100  H    0.112937
   101  H    0.092395
   102  H    0.106933
   103  H    0.122677
   104  H    0.110019
   105  H    0.086316
   106  H    0.095826
   107  H    0.102908
   108  H    0.087914
   109  H    0.069405
   110  H    0.085383
   111  H    0.079171
   112  H    0.083656
   113  H    0.121875
   114  H    0.090926
   115  H    0.089149
   116  H    0.101596
   117  H    0.067942
   118  H    0.087265
   119  H    0.057175
   120  H    0.083230
   121  H    0.074413
   122  H    0.093875
   123  H    0.099027
   124  H    0.091487
   125  H    0.102853
   126  H    0.072118
   127  H    0.099808
   128  H    0.086332
   129  H    0.094656
   130  H    0.092845
   131  H    0.075173
   132  H    0.057600
   133  H    0.114544
   134  H    0.091337
   135  H    0.109689
   136  H    0.089061
   137  H    0.109100
 Sum of Mulliken charges =   0.00000

 Dipole moment (field-independent basis, Debye):
    X=              1.4170    Y=              5.2442    Z=              0.7737  Tot=              5.4871
 Quadrupole moment (field-independent basis, Debye-Ang):
   XX=           -333.0820   YY=           -392.0543   ZZ=           -398.9485
   XY=            -26.2858   XZ=              4.5395   YZ=             -2.7299

 Normal termination of Gaussian 09 at Sat Jun 29 01:19:50 2019.
