 Gaussian 09, Revision D.01,
 Gaussian 09:  ES64L-G09RevD.01 24-Apr-2013

 -------------------------------------
 # td=(NStates=1) CAM-B3LYP/6-31G(d,p)
 -------------------------------------

 --
 TD
 --
 Symbolic Z-matrix:
 Charge =  0 Multiplicity = 1

                         Standard orientation:
 ---------------------------------------------------------------------
 Center     Atomic      Atomic             Coordinates (Angstroms)
 Number     Number       Type             X           Y           Z
 ---------------------------------------------------------------------
      1         12           0       -7.113700    0.585152    0.096204
      2          6           0       -4.831716   -1.955993    0.549466
      3          6           0       -4.853794    2.855080    1.172850
      4          6           0       -9.489305    3.048558   -0.250835
      5          6           0       -9.510730   -1.799510   -0.815007
      6          7           0       -5.084906    0.423985    0.679187
      7          6           0       -4.397686   -0.730551    0.791937
      8          6           0       -2.924096   -0.487337    1.196157
      9          6           0       -2.994748    1.046011    1.617635
     10          6           0       -4.354838    1.521064    1.134691
     11          6           0       -2.965376    1.226298    3.134761
     12          6           0       -1.872129   -0.610076    0.121515
     13          6           0       -0.391546   -0.297390    0.492540
     14          6           0        0.573833   -0.607181   -0.706052
     15          8           0        0.245353   -1.085601   -1.795885
     16          8           0        1.762289   -0.242679   -0.237102
     17          7           0       -7.161281    2.667411    0.335460
     18          6           0       -6.042751    3.372929    0.806100
     19          6           0       -6.557176    4.799475    0.757820
     20          6           0       -7.847814    4.841417    0.380733
     21          6           0       -8.170399    3.451986    0.134211
     22          6           0       -5.680572    5.883810    1.293813
     23          6           0       -8.616070    6.027788    0.241298
     24          6           0       -8.136946    7.242152   -0.049524
     25          7           0       -9.143102    0.616926   -0.501141
     26          6           0       -9.958984    1.762143   -0.654853
     27          6           0      -11.249978    1.474312   -1.012173
     28          6           0      -11.307282    0.017423   -1.095564
     29          6           0      -10.044361   -0.486105   -0.700402
     30          6           0      -12.311650    2.462182   -1.258870
     31          6           0      -12.333353   -0.928761   -1.586464
     32          6           0      -12.163267   -1.232652   -3.126868
     33          7           0       -7.265664   -1.402837   -0.104420
     34          6           0       -8.232999   -2.313706   -0.477572
     35          6           0       -7.727756   -3.700206   -0.546859
     36          6           0       -6.419385   -3.632565   -0.151359
     37          6           0       -6.183472   -2.222588    0.081071
     38          6           0       -8.508151   -4.910903   -0.909661
     39          6           0       -5.264593   -4.420369    0.189643
     40          8           0       -5.070377   -5.623103    0.130907
     41          6           0       -4.105373   -3.366180    0.561239
     42          6           0       -3.441738   -3.719951    1.946856
     43          8           0       -3.729766   -3.045290    2.942476
     44          8           0       -2.630188   -4.730995    1.694158
     45          6           0       -2.046339   -5.073285    2.898942
     46          6           0        2.792069   -0.382819   -1.267530
     47          6           0        4.146511   -0.195315   -0.609346
     48          6           0        5.177082    0.583950   -0.994531
     49          6           0        5.155090    1.423857   -2.242373
     50          6           0        6.409015    0.566748   -0.224798
     51          6           0        7.568826   -0.197058   -0.999301
     52          6           0        8.874030   -0.171598   -0.178032
     53          6           0       10.096817   -0.510577   -1.004007
     54          6           0       10.079914   -2.080074   -1.570204
     55          6           0       11.387807   -0.300070   -0.045983
     56          6           0       12.779333   -0.522689   -0.733039
     57          6           0       13.866604   -0.185283    0.225561
     58          6           0       15.259034   -0.192503   -0.384390
     59          6           0       15.708637   -1.678769   -0.877548
     60          6           0       16.315389    0.419223    0.618764
     61          6           0       17.749489    0.466770   -0.134800
     62          6           0       18.704714    1.193707    0.873697
     63          6           0       20.081561    1.224683    0.281712
     64          6           0       20.454359    2.079523   -0.949501
     65          6           0       20.988390    1.844850    1.378307
     66          1           0       -3.967711    3.380887    1.500391
     67          1           0      -10.163422    3.915258   -0.278431
     68          1           0      -10.173319   -2.513810   -0.902160
     69          1           0       -2.443358   -1.098882    2.105064
     70          1           0       -2.041003    1.529341    1.102266
     71          1           0       -2.082968    0.769018    3.604246
     72          1           0       -2.978274    2.392078    3.292060
     73          1           0       -3.889823    0.923290    3.622800
     74          1           0       -1.788297   -1.676982   -0.140875
     75          1           0       -2.080182    0.095690   -0.748219
     76          1           0       -0.136199    0.789099    0.868802
     77          1           0       -0.271093   -0.962547    1.169094
     78          1           0       -4.868358    6.140474    0.419344
     79          1           0       -6.226289    6.618607    1.643358
     80          1           0       -5.073477    5.362071    2.144535
     81          1           0       -9.656350    5.996144    0.384012
     82          1           0       -8.809036    8.078209   -0.221605
     83          1           0       -7.013653    7.353619   -0.022797
     84          1           0      -12.330757    2.875725   -2.436196
     85          1           0      -13.446382    2.155225   -1.096703
     86          1           0      -12.303874    3.207507   -0.276085
     87          1           0      -12.409384   -1.855844   -0.947045
     88          1           0      -13.248819   -0.463491   -1.393398
     89          1           0      -12.777993   -2.084765   -3.398491
     90          1           0      -12.254638   -0.410663   -3.941183
     91          1           0      -11.179352   -1.567639   -3.060373
     92          1           0       -9.108607   -4.729432   -1.843625
     93          1           0       -7.610806   -5.637743   -1.160423
     94          1           0       -9.294291   -5.032831   -0.097880
     95          1           0       -3.412918   -3.179170   -0.247820
     96          1           0       -1.295767   -4.497602    3.217596
     97          1           0       -2.700314   -5.454552    3.730238
     98          1           0       -1.407185   -5.710470    2.529373
     99          1           0        2.540675   -1.400837   -1.712240
    100          1           0        2.519421    0.214254   -2.123585
    101          1           0        4.390569   -0.755456    0.421648
    102          1           0        4.045617    1.754400   -2.675380
    103          1           0        5.445139    2.351758   -1.844246
    104          1           0        5.824111    0.910979   -2.860213
    105          1           0        6.863004    1.670434   -0.055993
    106          1           0        6.115244    0.160266    0.717132
    107          1           0        7.382600   -1.278539   -0.998205
    108          1           0        7.831217    0.464599   -2.046712
    109          1           0        9.097876    0.888319    0.362859
    110          1           0        8.894493   -0.903846    0.621057
    111          1           0       10.351150    0.268803   -1.912010
    112          1           0        9.061801   -2.364991   -2.255096
    113          1           0       10.920304   -2.204600   -2.196309
    114          1           0       10.006901   -2.675864   -0.480568
    115          1           0       11.340327    0.777627    0.401718
    116          1           0       11.253097   -1.211506    0.574449
    117          1           0       12.906701   -1.533302   -1.307668
    118          1           0       12.600553    0.175987   -1.668136
    119          1           0       13.611611    0.977582    0.807220
    120          1           0       13.919657   -0.718213    1.077470
    121          1           0       15.191072    0.335152   -1.320622
    122          1           0       15.993724   -2.190128    0.007686
    123          1           0       14.802362   -2.050717   -1.621719
    124          1           0       16.568406   -1.540294   -1.449278
    125          1           0       16.139364    1.518272    0.722973
    126          1           0       16.288841   -0.084222    1.487767
    127          1           0       18.253550   -0.447396   -0.555450
    128          1           0       17.676886    1.154756   -1.065664
    129          1           0       18.492627    2.158720    1.174667
    130          1           0       18.620177    0.663186    1.777282
    131          1           0       20.463019    0.235412    0.043413
    132          1           0       20.250469    3.151896   -0.831089
    133          1           0       21.464673    2.002095   -1.293948
    134          1           0       19.822894    1.731302   -1.827236
    135          1           0       20.876208    1.306418    2.315368
    136          1           0       21.936948    1.897060    1.054728
    137          1           0       20.618400    3.002694    1.576336
 ---------------------------------------------------------------------

 SCF Done:  E(RCAM-B3LYP) =  -2932.59602764     A.U. after   18 cycles

 Excitation energies and oscillator strengths:

 Excited State   1:      Singlet-A      2.0748 eV  597.58 nm  f=0.1745  <S**2>=0.000
     240 -> 243        0.27804
     241 -> 242        0.64181
 This state for optimization and/or second-order correction.
 Total Energy, E(TD-HF/TD-KS) =  -2932.51978099
 Copying the excited state density for this state as the 1-particle RhoCI density.

 The electronic state is 1-A.
 Alpha  occ. eigenvalues --  -46.84407 -19.29131 -19.27484 -19.22052 -19.21830
 Alpha  occ. eigenvalues --  -19.20701 -14.41711 -14.39808 -14.38960 -14.37750
 Alpha  occ. eigenvalues --  -10.40395 -10.39894 -10.35516 -10.32576 -10.31966
 Alpha  occ. eigenvalues --  -10.30341 -10.29585 -10.29513 -10.29237 -10.28961
 Alpha  occ. eigenvalues --  -10.28749 -10.28743 -10.28573 -10.28541 -10.28397
 Alpha  occ. eigenvalues --  -10.28274 -10.28239 -10.28197 -10.27827 -10.27801
 Alpha  occ. eigenvalues --  -10.27688 -10.27376 -10.27302 -10.27199 -10.27159
 Alpha  occ. eigenvalues --  -10.26846 -10.26751 -10.26656 -10.26528 -10.26507
 Alpha  occ. eigenvalues --  -10.26497 -10.26467 -10.26406 -10.26331 -10.26275
 Alpha  occ. eigenvalues --  -10.26263 -10.26188 -10.26162 -10.26160 -10.26066
 Alpha  occ. eigenvalues --  -10.25965 -10.25908 -10.25871 -10.25672 -10.25645
 Alpha  occ. eigenvalues --  -10.25618 -10.25585 -10.25332 -10.25321 -10.25270
 Alpha  occ. eigenvalues --  -10.25214 -10.24858 -10.24572 -10.23992 -10.23680
 Alpha  occ. eigenvalues --   -3.13277  -1.87998  -1.87500  -1.87457  -1.21688
 Alpha  occ. eigenvalues --   -1.18972  -1.11025  -1.10364  -1.09447  -1.04209
 Alpha  occ. eigenvalues --   -1.03648  -1.02715  -0.99576  -0.92021  -0.91422
 Alpha  occ. eigenvalues --   -0.90090  -0.89917  -0.89752  -0.89237  -0.88798
 Alpha  occ. eigenvalues --   -0.87911  -0.87634  -0.87334  -0.86475  -0.85815
 Alpha  occ. eigenvalues --   -0.84992  -0.84330  -0.83747  -0.82672  -0.82174
 Alpha  occ. eigenvalues --   -0.81519  -0.81063  -0.80493  -0.79343  -0.77994
 Alpha  occ. eigenvalues --   -0.77781  -0.76855  -0.76397  -0.75736  -0.75517
 Alpha  occ. eigenvalues --   -0.74683  -0.73902  -0.73857  -0.73121  -0.72166
 Alpha  occ. eigenvalues --   -0.71271  -0.69810  -0.69404  -0.68564  -0.68313
 Alpha  occ. eigenvalues --   -0.66826  -0.66710  -0.66059  -0.64853  -0.64429
 Alpha  occ. eigenvalues --   -0.64238  -0.63763  -0.63153  -0.63073  -0.62734
 Alpha  occ. eigenvalues --   -0.60906  -0.60395  -0.60292  -0.59435  -0.59101
 Alpha  occ. eigenvalues --   -0.58661  -0.58440  -0.57992  -0.57762  -0.57249
 Alpha  occ. eigenvalues --   -0.56313  -0.55552  -0.55463  -0.55370  -0.54868
 Alpha  occ. eigenvalues --   -0.54575  -0.54341  -0.54080  -0.53770  -0.53235
 Alpha  occ. eigenvalues --   -0.53052  -0.52632  -0.52309  -0.51711  -0.51334
 Alpha  occ. eigenvalues --   -0.51183  -0.50924  -0.50886  -0.50527  -0.50018
 Alpha  occ. eigenvalues --   -0.49923  -0.49788  -0.49609  -0.49329  -0.49272
 Alpha  occ. eigenvalues --   -0.49042  -0.48870  -0.48738  -0.48493  -0.48471
 Alpha  occ. eigenvalues --   -0.47986  -0.47457  -0.47305  -0.47060  -0.47045
 Alpha  occ. eigenvalues --   -0.46825  -0.46686  -0.46366  -0.46120  -0.45923
 Alpha  occ. eigenvalues --   -0.45894  -0.45639  -0.45532  -0.44889  -0.44811
 Alpha  occ. eigenvalues --   -0.44791  -0.44630  -0.44326  -0.44097  -0.43847
 Alpha  occ. eigenvalues --   -0.43640  -0.43506  -0.43402  -0.43208  -0.42998
 Alpha  occ. eigenvalues --   -0.42744  -0.42361  -0.42260  -0.42051  -0.41998
 Alpha  occ. eigenvalues --   -0.41878  -0.41622  -0.41556  -0.41539  -0.41257
 Alpha  occ. eigenvalues --   -0.40971  -0.40776  -0.40572  -0.40490  -0.39864
 Alpha  occ. eigenvalues --   -0.39756  -0.39714  -0.39651  -0.39173  -0.39140
 Alpha  occ. eigenvalues --   -0.38992  -0.38847  -0.38825  -0.38384  -0.37963
 Alpha  occ. eigenvalues --   -0.37719  -0.37665  -0.37538  -0.36989  -0.36880
 Alpha  occ. eigenvalues --   -0.36376  -0.36323  -0.36254  -0.35500  -0.35269
 Alpha  occ. eigenvalues --   -0.35019  -0.34660  -0.34208  -0.34147  -0.33995
 Alpha  occ. eigenvalues --   -0.32770  -0.32171  -0.32101  -0.30458  -0.30328
 Alpha  occ. eigenvalues --   -0.30030  -0.29591  -0.27216  -0.26004  -0.22856
 Alpha  occ. eigenvalues --   -0.20811
 Alpha virt. eigenvalues --   -0.05804  -0.03607   0.01432   0.03996   0.05530
 Alpha virt. eigenvalues --    0.05690   0.06265   0.06568   0.06861   0.07496
 Alpha virt. eigenvalues --    0.08415   0.10860   0.10908   0.11198   0.11358

 Mulliken charges:
               1
     1  Mg   0.815953
     2  C    0.050212
     3  C   -0.211991
     4  C   -0.172299
     5  C   -0.130574
     6  N   -0.668392
     7  C    0.331551
     8  C   -0.145366
     9  C   -0.158166
    10  C    0.312505
    11  C   -0.297531
    12  C   -0.182730
    13  C   -0.259367
    14  C    0.616110
    15  O   -0.486912
    16  O   -0.453768
    17  N   -0.721940
    18  C    0.339680
    19  C   -0.021882
    20  C    0.046221
    21  C    0.335078
    22  C   -0.354008
    23  C   -0.074545
    24  C   -0.250132
    25  N   -0.669527
    26  C    0.308796
    27  C    0.050554
    28  C    0.010706
    29  C    0.244854
    30  C   -0.376642
    31  C   -0.259334
    32  C   -0.305200
    33  N   -0.687168
    34  C    0.231737
    35  C    0.008834
    36  C    0.054172
    37  C    0.259840
    38  C   -0.372969
    39  C    0.364886
    40  O   -0.462582
    41  C   -0.311521
    42  C    0.631699
    43  O   -0.472529
    44  O   -0.398942
    45  C   -0.095551
    46  C   -0.010896
    47  C   -0.137730
    48  C    0.119641
    49  C   -0.344355
    50  C   -0.223787
    51  C   -0.165917
    52  C   -0.154722
    53  C   -0.078606
    54  C   -0.294896
    55  C   -0.167046
    56  C   -0.182328
    57  C   -0.125896
    58  C   -0.078181
    59  C   -0.313260
    60  C   -0.178926
    61  C   -0.201552
    62  C   -0.154836
    63  C   -0.069756
    64  C   -0.313948
    65  C   -0.292110
    66  H    0.088665
    67  H    0.080837
    68  H    0.067342
    69  H    0.103579
    70  H    0.091307
    71  H    0.111455
    72  H    0.084961
    73  H    0.135223
    74  H    0.108065
    75  H    0.106798
    76  H    0.118810
    77  H    0.136197
    78  H    0.101856
    79  H    0.127998
    80  H    0.103353
    81  H    0.093087
    82  H    0.105698
    83  H    0.100136
    84  H    0.108059
    85  H    0.104820
    86  H    0.101305
    87  H    0.104376
    88  H    0.105519
    89  H    0.102497
    90  H    0.106231
    91  H    0.120358
    92  H    0.122788
    93  H    0.145214
    94  H    0.135994
    95  H    0.167274
    96  H    0.121744
    97  H    0.138735
    98  H    0.119771
    99  H    0.133844
   100  H    0.132478
   101  H    0.072294
   102  H    0.091006
   103  H    0.125831
   104  H    0.137375
   105  H    0.082376
   106  H    0.108056
   107  H    0.117313
   108  H    0.084878
   109  H    0.067536
   110  H    0.096739
   111  H    0.053668
   112  H    0.081724
   113  H    0.125262
   114  H    0.080882
   115  H    0.094554
   116  H    0.088972
   117  H    0.088797
   118  H    0.076325
   119  H    0.028848
   120  H    0.105873
   121  H    0.086835
   122  H    0.107212
   123  H    0.079802
   124  H    0.116919
   125  H    0.103213
   126  H    0.101296
   127  H    0.093139
   128  H    0.087453
   129  H    0.096946
   130  H    0.098112
   131  H    0.087054
   132  H    0.100103
   133  H    0.112124
   134  H    0.082582
   135  H    0.093217
   136  H    0.103437
   137  H    0.063163
 Sum of Mulliken charges =   0.00000

 Dipole moment (field-independent basis, Debye):
    X=              4.6514    Y=              2.7823    Z=              1.1603  Tot=              5.5428
 Quadrupole moment (field-independent basis, Debye-Ang):
   XX=           -348.5533   YY=           -397.5387   ZZ=           -398.9638
   XY=            -17.5244   XZ=              4.3336   YZ=             -5.1930

 Normal termination of Gaussian 09 at Sun Jun 30 10:47:11 2019.
