 Gaussian 09, Revision D.01,
 Gaussian 09:  ES64L-G09RevD.01 24-Apr-2013

 -------------------------------------
 # td=(NStates=1) CAM-B3LYP/6-31G(d,p)
 -------------------------------------

 --
 TD
 --
 Symbolic Z-matrix:
 Charge =  0 Multiplicity = 1

                         Standard orientation:
 ---------------------------------------------------------------------
 Center     Atomic      Atomic             Coordinates (Angstroms)
 Number     Number       Type             X           Y           Z
 ---------------------------------------------------------------------
      1         12           0       -7.065334    0.603322    0.009256
      2          6           0       -4.794547   -1.935673    0.546716
      3          6           0       -4.849738    2.923024    1.119303
      4          6           0       -9.394568    3.072276   -0.427564
      5          6           0       -9.483624   -1.738362   -0.860867
      6          7           0       -5.075490    0.455171    0.717587
      7          6           0       -4.256203   -0.732040    0.797441
      8          6           0       -2.852313   -0.316863    1.129318
      9          6           0       -3.045104    1.122233    1.665693
     10          6           0       -4.409605    1.541048    1.110353
     11          6           0       -2.926547    1.188086    3.178593
     12          6           0       -1.877095   -0.502210    0.032756
     13          6           0       -0.488617   -0.408335    0.429820
     14          6           0        0.435686   -0.620301   -0.845981
     15          8           0        0.201114   -1.118915   -1.978485
     16          8           0        1.733392   -0.429297   -0.417228
     17          7           0       -7.118314    2.639987    0.400083
     18          6           0       -6.100674    3.394834    0.889821
     19          6           0       -6.531706    4.755974    1.044570
     20          6           0       -7.844836    4.809230    0.515978
     21          6           0       -8.168631    3.429511    0.201585
     22          6           0       -5.635433    5.860010    1.530845
     23          6           0       -8.756908    6.004505    0.390048
     24          6           0       -8.342548    7.194989    0.102831
     25          7           0       -9.085826    0.688939   -0.469650
     26          6           0       -9.822190    1.816632   -0.661848
     27          6           0      -11.134460    1.470177   -1.129689
     28          6           0      -11.179336    0.129650   -1.311136
     29          6           0       -9.929565   -0.449954   -0.867715
     30          6           0      -12.238984    2.463657   -1.479450
     31          6           0      -12.288584   -0.792197   -1.660449
     32          6           0      -12.279193   -1.321624   -3.086920
     33          7           0       -7.161556   -1.392855   -0.166069
     34          6           0       -8.261186   -2.269906   -0.581118
     35          6           0       -7.730493   -3.597920   -0.486057
     36          6           0       -6.391672   -3.552476   -0.097296
     37          6           0       -6.130158   -2.120399    0.102830
     38          6           0       -8.475893   -4.861455   -0.932351
     39          6           0       -5.257094   -4.290449    0.206045
     40          8           0       -5.128857   -5.426912    0.262104
     41          6           0       -4.137308   -3.276573    0.537388
     42          6           0       -3.489258   -3.559725    2.016019
     43          8           0       -3.826604   -3.068726    3.077174
     44          8           0       -2.705565   -4.632372    1.852133
     45          6           0       -2.423437   -5.311197    3.078956
     46          6           0        2.779384   -0.701839   -1.435196
     47          6           0        4.081981   -0.405577   -0.753024
     48          6           0        5.136011    0.294771   -1.113125
     49          6           0        5.197512    1.180287   -2.360118
     50          6           0        6.454188    0.227160   -0.289489
     51          6           0        7.606558   -0.331048   -1.033231
     52          6           0        8.766627   -0.208061   -0.016677
     53          6           0       10.257500   -0.570532   -0.751418
     54          6           0       10.173096   -2.143868   -1.172257
     55          6           0       11.383710   -0.268542    0.020544
     56          6           0       12.727084   -0.438304   -0.650972
     57          6           0       13.920171   -0.118857    0.182420
     58          6           0       15.313164   -0.136706   -0.492910
     59          6           0       15.654513   -1.599120   -0.843612
     60          6           0       16.452459    0.428027    0.596568
     61          6           0       17.740295    0.696249   -0.109581
     62          6           0       18.826295    1.187039    0.807773
     63          6           0       20.190090    1.329280    0.187634
     64          6           0       20.262105    2.511016   -1.008494
     65          6           0       21.249767    1.763265    1.274273
     66          1           0       -4.074878    3.474659    1.655661
     67          1           0      -10.127198    4.061592   -0.542166
     68          1           0      -10.371495   -2.511585   -1.019709
     69          1           0       -2.409304   -0.981251    1.926624
     70          1           0       -2.254781    1.712776    1.142561
     71          1           0       -1.866424    0.920719    3.558545
     72          1           0       -3.303307    2.114350    3.745421
     73          1           0       -3.562352    0.459781    3.558948
     74          1           0       -1.955921   -1.406642   -0.452725
     75          1           0       -2.179131    0.166895   -0.832649
     76          1           0       -0.232219    0.390570    0.827559
     77          1           0       -0.104444   -1.277138    1.200501
     78          1           0       -4.837499    6.273446    0.820839
     79          1           0       -6.224124    6.900942    1.633065
     80          1           0       -4.942077    5.360069    2.269570
     81          1           0       -9.739454    5.894166    0.499592
     82          1           0       -9.290804    7.922620    0.008691
     83          1           0       -7.319994    7.606834   -0.119732
     84          1           0      -11.953175    3.395355   -1.997545
     85          1           0      -13.074143    2.093343   -2.042635
     86          1           0      -12.614139    2.806797   -0.343850
     87          1           0      -12.431234   -1.609760   -0.878735
     88          1           0      -13.187181   -0.101409   -1.522960
     89          1           0      -12.974714   -2.066945   -3.213652
     90          1           0      -12.322741   -0.447145   -3.741951
     91          1           0      -11.306898   -1.826069   -3.143721
     92          1           0       -9.005874   -4.706889   -1.961738
     93          1           0       -7.726557   -5.625822   -0.945069
     94          1           0       -9.359286   -4.927513   -0.338727
     95          1           0       -3.378838   -3.498947   -0.256794
     96          1           0       -1.711854   -4.812502    3.563877
     97          1           0       -3.096458   -5.621577    3.685862
     98          1           0       -1.959134   -6.312901    2.783376
     99          1           0        2.482305   -1.794145   -1.687231
    100          1           0        2.674122   -0.081797   -2.535275
    101          1           0        4.184585   -0.900276    0.166363
    102          1           0        4.381300    1.241147   -3.161811
    103          1           0        5.540553    2.376151   -1.939560
    104          1           0        6.139085    0.710749   -3.012708
    105          1           0        6.635681    1.198907    0.088479
    106          1           0        6.153179   -0.328785    0.559941
    107          1           0        7.437432   -1.389808   -1.464936
    108          1           0        7.900221    0.242148   -1.906237
    109          1           0        8.708957    0.792661    0.206886
    110          1           0        8.674551   -0.819794    0.874916
    111          1           0       10.225044    0.155872   -1.719592
    112          1           0        9.164287   -2.248080   -1.814226
    113          1           0       10.962819   -2.271581   -2.058882
    114          1           0       10.464656   -2.683935   -0.292602
    115          1           0       11.314744    0.744916    0.369393
    116          1           0       11.224342   -0.804141    0.979914
    117          1           0       12.677680   -1.553763   -0.965182
    118          1           0       12.618289    0.084043   -1.601643
    119          1           0       13.756693    0.927341    0.698940
    120          1           0       13.934918   -0.716883    1.128561
    121          1           0       15.418578    0.471956   -1.355271
    122          1           0       15.164657   -2.160117    0.077733
    123          1           0       14.798179   -1.847717   -1.677068
    124          1           0       16.616523   -1.803558   -1.255521
    125          1           0       15.859500    1.379178    0.966525
    126          1           0       16.596933   -0.340036    1.500953
    127          1           0       18.149799   -0.403410   -0.353101
    128          1           0       17.294506    1.403727   -0.941039
    129          1           0       18.468353    2.199159    1.388461
    130          1           0       18.900826    0.217950    1.584593
    131          1           0       20.525071    0.367572   -0.342427
    132          1           0       19.772873    3.392473   -0.638846
    133          1           0       21.228461    2.826281   -1.209696
    134          1           0       19.893534    1.945466   -2.024473
    135          1           0       21.299439    1.123648    2.097641
    136          1           0       22.181830    1.775010    0.914251
    137          1           0       21.073469    2.904974    1.551657
 ---------------------------------------------------------------------

 SCF Done:  E(RCAM-B3LYP) =  -2932.63789727     A.U. after   18 cycles

 Excitation energies and oscillator strengths:

 Excited State   1:      Singlet-A      2.0190 eV  614.08 nm  f=0.2655  <S**2>=0.000
     240 -> 243       -0.21085
     241 -> 242        0.67032
 This state for optimization and/or second-order correction.
 Total Energy, E(TD-HF/TD-KS) =  -2932.56370000
 Copying the excited state density for this state as the 1-particle RhoCI density.

 The electronic state is 1-A.
 Alpha  occ. eigenvalues --  -46.83982 -19.26932 -19.26092 -19.21655 -19.21560
 Alpha  occ. eigenvalues --  -19.19095 -14.42072 -14.39250 -14.38944 -14.38748
 Alpha  occ. eigenvalues --  -10.40147 -10.39764 -10.33791 -10.32925 -10.31962
 Alpha  occ. eigenvalues --  -10.30214 -10.29740 -10.29615 -10.29488 -10.29188
 Alpha  occ. eigenvalues --  -10.28544 -10.28449 -10.28377 -10.28238 -10.28169
 Alpha  occ. eigenvalues --  -10.28166 -10.28092 -10.27976 -10.27937 -10.27906
 Alpha  occ. eigenvalues --  -10.27731 -10.27459 -10.27425 -10.27403 -10.27389
 Alpha  occ. eigenvalues --  -10.27371 -10.27322 -10.27259 -10.27249 -10.27215
 Alpha  occ. eigenvalues --  -10.26838 -10.26572 -10.26569 -10.26533 -10.26504
 Alpha  occ. eigenvalues --  -10.26442 -10.26418 -10.26195 -10.26158 -10.26157
 Alpha  occ. eigenvalues --  -10.26148 -10.25968 -10.25836 -10.25685 -10.25646
 Alpha  occ. eigenvalues --  -10.25646 -10.25633 -10.25452 -10.25332 -10.25294
 Alpha  occ. eigenvalues --  -10.25212 -10.24344 -10.23966 -10.23806 -10.23570
 Alpha  occ. eigenvalues --   -3.13003  -1.87718  -1.87216  -1.87193  -1.18666
 Alpha  occ. eigenvalues --   -1.16058  -1.14442  -1.09533  -1.07068  -1.04805
 Alpha  occ. eigenvalues --   -1.03706  -1.02663  -1.01012  -0.92685  -0.91965
 Alpha  occ. eigenvalues --   -0.91639  -0.90633  -0.89421  -0.89208  -0.89135
 Alpha  occ. eigenvalues --   -0.87916  -0.87374  -0.87323  -0.87047  -0.86425
 Alpha  occ. eigenvalues --   -0.85707  -0.84455  -0.83324  -0.83105  -0.82928
 Alpha  occ. eigenvalues --   -0.82012  -0.81656  -0.80666  -0.79367  -0.78066
 Alpha  occ. eigenvalues --   -0.77796  -0.76764  -0.76151  -0.75136  -0.75033
 Alpha  occ. eigenvalues --   -0.74907  -0.74566  -0.73938  -0.73416  -0.72694
 Alpha  occ. eigenvalues --   -0.71668  -0.70634  -0.69610  -0.69237  -0.68264
 Alpha  occ. eigenvalues --   -0.66942  -0.66561  -0.65577  -0.65085  -0.64751
 Alpha  occ. eigenvalues --   -0.64615  -0.62735  -0.62463  -0.62043  -0.61379
 Alpha  occ. eigenvalues --   -0.61198  -0.60586  -0.60119  -0.59948  -0.59041
 Alpha  occ. eigenvalues --   -0.58480  -0.58241  -0.57168  -0.57015  -0.56962
 Alpha  occ. eigenvalues --   -0.55907  -0.55686  -0.55480  -0.55032  -0.54794
 Alpha  occ. eigenvalues --   -0.54547  -0.54279  -0.54168  -0.54014  -0.53417
 Alpha  occ. eigenvalues --   -0.53123  -0.52199  -0.51789  -0.51761  -0.51643
 Alpha  occ. eigenvalues --   -0.51346  -0.51224  -0.51016  -0.50876  -0.50736
 Alpha  occ. eigenvalues --   -0.50545  -0.50054  -0.49675  -0.49451  -0.49356
 Alpha  occ. eigenvalues --   -0.49211  -0.48865  -0.48594  -0.48543  -0.48455
 Alpha  occ. eigenvalues --   -0.48436  -0.47998  -0.47757  -0.47321  -0.47085
 Alpha  occ. eigenvalues --   -0.46971  -0.46677  -0.46435  -0.46297  -0.46091
 Alpha  occ. eigenvalues --   -0.45667  -0.45534  -0.45089  -0.45004  -0.44920
 Alpha  occ. eigenvalues --   -0.44780  -0.44579  -0.44411  -0.44257  -0.44201
 Alpha  occ. eigenvalues --   -0.43922  -0.43687  -0.43328  -0.43160  -0.43031
 Alpha  occ. eigenvalues --   -0.42913  -0.42551  -0.42307  -0.42109  -0.42051
 Alpha  occ. eigenvalues --   -0.41808  -0.41747  -0.41559  -0.41331  -0.41269
 Alpha  occ. eigenvalues --   -0.41043  -0.40948  -0.40747  -0.40497  -0.40391
 Alpha  occ. eigenvalues --   -0.40314  -0.40168  -0.39774  -0.39728  -0.39275
 Alpha  occ. eigenvalues --   -0.39042  -0.38405  -0.38195  -0.38076  -0.37770
 Alpha  occ. eigenvalues --   -0.37721  -0.37667  -0.37566  -0.36884  -0.36808
 Alpha  occ. eigenvalues --   -0.36514  -0.36453  -0.35744  -0.35608  -0.35374
 Alpha  occ. eigenvalues --   -0.35259  -0.34526  -0.33960  -0.33890  -0.33038
 Alpha  occ. eigenvalues --   -0.32987  -0.32710  -0.32331  -0.31256  -0.30214
 Alpha  occ. eigenvalues --   -0.29502  -0.29164  -0.28011  -0.27642  -0.23890
 Alpha  occ. eigenvalues --   -0.20788
 Alpha virt. eigenvalues --   -0.06369  -0.02515   0.02183   0.04400   0.04712
 Alpha virt. eigenvalues --    0.05377   0.06006   0.06071   0.07253   0.07752
 Alpha virt. eigenvalues --    0.08391   0.10780   0.11059   0.11321   0.11466

 Mulliken charges:
               1
     1  Mg   0.811039
     2  C    0.102931
     3  C   -0.213968
     4  C   -0.197687
     5  C   -0.200000
     6  N   -0.646520
     7  C    0.288754
     8  C   -0.158821
     9  C   -0.149178
    10  C    0.337985
    11  C   -0.313113
    12  C   -0.172175
    13  C   -0.224651
    14  C    0.593279
    15  O   -0.489873
    16  O   -0.490211
    17  N   -0.713659
    18  C    0.360975
    19  C    0.030759
    20  C   -0.020814
    21  C    0.317292
    22  C   -0.376870
    23  C   -0.048494
    24  C   -0.233913
    25  N   -0.710156
    26  C    0.364287
    27  C    0.012521
    28  C    0.055109
    29  C    0.265464
    30  C   -0.362583
    31  C   -0.266530
    32  C   -0.294013
    33  N   -0.766698
    34  C    0.267176
    35  C   -0.009464
    36  C    0.020955
    37  C    0.340285
    38  C   -0.359245
    39  C    0.330766
    40  O   -0.420492
    41  C   -0.341719
    42  C    0.608053
    43  O   -0.469638
    44  O   -0.433559
    45  C   -0.084998
    46  C    0.022273
    47  C   -0.119327
    48  C    0.117338
    49  C   -0.334606
    50  C   -0.225541
    51  C   -0.176305
    52  C   -0.182683
    53  C   -0.069570
    54  C   -0.308344
    55  C   -0.157271
    56  C   -0.166363
    57  C   -0.181123
    58  C   -0.059077
    59  C   -0.293411
    60  C   -0.169527
    61  C   -0.150070
    62  C   -0.128917
    63  C   -0.057935
    64  C   -0.321112
    65  C   -0.303439
    66  H    0.080585
    67  H    0.083124
    68  H    0.092289
    69  H    0.109150
    70  H    0.101593
    71  H    0.102441
    72  H    0.103064
    73  H    0.146163
    74  H    0.136064
    75  H    0.109039
    76  H    0.134654
    77  H    0.123188
    78  H    0.116353
    79  H    0.111640
    80  H    0.116073
    81  H    0.101085
    82  H    0.080792
    83  H    0.113721
    84  H    0.122282
    85  H    0.120557
    86  H    0.092587
    87  H    0.104557
    88  H    0.088547
    89  H    0.113778
    90  H    0.113041
    91  H    0.105397
    92  H    0.107033
    93  H    0.147971
    94  H    0.129352
    95  H    0.155784
    96  H    0.126783
    97  H    0.145649
    98  H    0.108625
    99  H    0.132448
   100  H    0.094778
   101  H    0.084643
   102  H    0.118366
   103  H    0.077744
   104  H    0.092174
   105  H    0.110685
   106  H    0.109385
   107  H    0.094060
   108  H    0.106897
   109  H    0.102214
   110  H    0.095377
   111  H    0.048437
   112  H    0.096345
   113  H    0.090532
   114  H    0.117786
   115  H    0.090529
   116  H    0.077830
   117  H    0.086290
   118  H    0.095532
   119  H    0.069577
   120  H    0.097072
   121  H    0.089717
   122  H    0.094800
   123  H    0.073906
   124  H    0.112920
   125  H    0.073316
   126  H    0.067423
   127  H    0.080310
   128  H    0.090210
   129  H    0.071789
   130  H    0.062724
   131  H    0.079559
   132  H    0.108287
   133  H    0.112512
   134  H    0.083940
   135  H    0.104281
   136  H    0.110443
   137  H    0.078629
 Sum of Mulliken charges =   0.00000

 Dipole moment (field-independent basis, Debye):
    X=              2.4404    Y=              4.3348    Z=              0.4908  Tot=              4.9987
 Quadrupole moment (field-independent basis, Debye-Ang):
   XX=           -345.3290   YY=           -391.1690   ZZ=           -400.0480
   XY=            -19.8962   XZ=             11.9202   YZ=             -6.0479

 Normal termination of Gaussian 09 at Sat Jun 29 12:08:11 2019.
