 Gaussian 09, Revision D.01,
 Gaussian 09:  ES64L-G09RevD.01 24-Apr-2013

 -------------------------------------
 # td=(NStates=1) CAM-B3LYP/6-31G(d,p)
 -------------------------------------

 --
 TD
 --
 Symbolic Z-matrix:
 Charge =  0 Multiplicity = 1

                         Standard orientation:
 ---------------------------------------------------------------------
 Center     Atomic      Atomic             Coordinates (Angstroms)
 Number     Number       Type             X           Y           Z
 ---------------------------------------------------------------------
      1         12           0       -7.192323    0.559902    0.115618
      2          6           0       -4.939574   -1.898252    0.575828
      3          6           0       -4.771094    2.883851    1.297543
      4          6           0       -9.441445    3.128529   -0.303065
      5          6           0       -9.549931   -1.753840   -0.891639
      6          7           0       -5.161881    0.513081    0.846530
      7          6           0       -4.383325   -0.676656    0.755438
      8          6           0       -2.924502   -0.303294    1.216121
      9          6           0       -3.018913    1.081843    1.752016
     10          6           0       -4.401633    1.556239    1.248737
     11          6           0       -2.998394    1.217826    3.215297
     12          6           0       -1.951831   -0.446639   -0.018221
     13          6           0       -0.422797   -0.374041    0.390987
     14          6           0        0.447047   -0.621609   -0.718664
     15          8           0        0.190741   -0.873079   -1.788780
     16          8           0        1.812845   -0.521244   -0.285624
     17          7           0       -7.222794    2.609479    0.524053
     18          6           0       -6.064256    3.382087    0.908019
     19          6           0       -6.463826    4.749145    0.899093
     20          6           0       -7.731870    4.871453    0.406129
     21          6           0       -8.172775    3.508643    0.149472
     22          6           0       -5.467849    5.823611    1.275609
     23          6           0       -8.619998    5.903095    0.301682
     24          6           0       -8.283557    7.209856   -0.163288
     25          7           0       -9.098989    0.591398   -0.529848
     26          6           0       -9.809941    1.850508   -0.662709
     27          6           0      -11.184761    1.454806   -1.061047
     28          6           0      -11.236285    0.086406   -1.244690
     29          6           0       -9.844840   -0.407826   -0.895588
     30          6           0      -12.284763    2.414640   -1.281594
     31          6           0      -12.325523   -0.659874   -1.711927
     32          6           0      -12.267978   -1.024925   -3.248646
     33          7           0       -7.163313   -1.397599   -0.141866
     34          6           0       -8.210793   -2.208256   -0.430758
     35          6           0       -7.834335   -3.621166   -0.335110
     36          6           0       -6.577738   -3.606499    0.003399
     37          6           0       -6.215952   -2.258619    0.306561
     38          6           0       -8.745679   -4.815561   -0.697398
     39          6           0       -5.336296   -4.367963    0.228683
     40          8           0       -5.034928   -5.566263    0.188799
     41          6           0       -4.171171   -3.260259    0.453558
     42          6           0       -3.533466   -3.689582    1.838594
     43          8           0       -3.762660   -3.105986    2.898050
     44          8           0       -2.794630   -4.711402    1.665953
     45          6           0       -2.039720   -5.163724    2.817066
     46          6           0        2.820756   -0.700702   -1.206131
     47          6           0        4.163162   -0.481963   -0.551482
     48          6           0        5.130057    0.309279   -1.116384
     49          6           0        5.086099    1.069886   -2.255341
     50          6           0        6.370914    0.296930   -0.319153
     51          6           0        7.603822   -0.208780   -1.026709
     52          6           0        8.986998   -0.183693   -0.272851
     53          6           0       10.227040   -0.600587   -0.936398
     54          6           0       10.024485   -2.077601   -1.474623
     55          6           0       11.467988   -0.535794   -0.000544
     56          6           0       12.846852   -0.687657   -0.733951
     57          6           0       14.030757   -0.109057    0.152860
     58          6           0       15.352297   -0.164740   -0.475603
     59          6           0       15.761104   -1.455951   -0.920983
     60          6           0       16.442430    0.383910    0.508116
     61          6           0       17.786161    0.691119   -0.112678
     62          6           0       18.840237    1.222676    0.815413
     63          6           0       20.255702    1.440388    0.329105
     64          6           0       20.326383    2.223073   -1.004059
     65          6           0       21.044621    2.054943    1.505990
     66          1           0       -4.211200    3.713063    1.671127
     67          1           0      -10.123651    3.891018   -0.438753
     68          1           0      -10.402330   -2.443044   -1.124642
     69          1           0       -2.669622   -1.049755    2.104264
     70          1           0       -2.350123    1.671065    1.160622
     71          1           0       -2.013332    0.883377    3.516921
     72          1           0       -3.145920    2.222742    3.552548
     73          1           0       -3.719753    0.643701    3.440551
     74          1           0       -2.039202   -1.458938   -0.475737
     75          1           0       -2.163083    0.128284   -0.745860
     76          1           0       -0.126051    0.496634    0.726121
     77          1           0       -0.270991   -1.018797    1.329038
     78          1           0       -5.056258    6.285602    0.345117
     79          1           0       -5.703687    6.628760    1.869252
     80          1           0       -4.567268    5.357921    1.921392
     81          1           0       -9.727696    5.753081    0.447948
     82          1           0       -9.052946    7.968543   -0.133262
     83          1           0       -7.321656    7.397064   -0.194380
     84          1           0      -12.212216    3.049902   -2.236567
     85          1           0      -13.452431    2.200024   -1.336142
     86          1           0      -12.357080    3.125111   -0.523943
     87          1           0      -12.424873   -1.828543   -1.207897
     88          1           0      -13.288434   -0.253114   -1.620534
     89          1           0      -13.160517   -1.639516   -3.616602
     90          1           0      -12.271885   -0.143069   -3.832858
     91          1           0      -11.298972   -1.582704   -3.648814
     92          1           0       -9.223809   -4.826374   -1.837788
     93          1           0       -8.163269   -5.696614   -0.671812
     94          1           0       -9.564455   -4.854557   -0.200335
     95          1           0       -3.434397   -3.349999   -0.290549
     96          1           0       -1.402750   -4.384542    3.336042
     97          1           0       -2.429508   -5.644110    3.800053
     98          1           0       -1.266203   -5.969943    2.588262
     99          1           0        2.789815   -1.865775   -1.584930
    100          1           0        2.642042   -0.138607   -2.112437
    101          1           0        4.288647   -1.080347    0.437750
    102          1           0        4.151166    1.057090   -2.831012
    103          1           0        5.210329    2.223376   -2.209556
    104          1           0        5.682729    0.575956   -2.929988
    105          1           0        6.601789    1.348620   -0.236623
    106          1           0        6.198645   -0.395962    0.705650
    107          1           0        7.422014   -1.318305   -1.339076
    108          1           0        7.812937    0.228190   -1.925277
    109          1           0        9.204919    0.824004    0.266727
    110          1           0        8.921981   -0.936382    0.439628
    111          1           0       10.560555   -0.092424   -1.834541
    112          1           0        9.127758   -2.372826   -2.100418
    113          1           0       10.848637   -2.495009   -1.928282
    114          1           0        9.963173   -2.658682   -0.597417
    115          1           0       11.541198    0.524552    0.839427
    116          1           0       11.431646   -1.417153    0.536929
    117          1           0       12.918169   -1.575917   -1.204645
    118          1           0       12.616792   -0.126550   -1.443674
    119          1           0       13.898733    0.862460    0.368884
    120          1           0       13.936631   -0.648444    1.083608
    121          1           0       15.561061    0.338091   -1.215399
    122          1           0       15.974174   -2.194161   -0.085917
    123          1           0       15.134569   -1.985930   -1.739654
    124          1           0       16.587775   -1.283284   -1.362576
    125          1           0       15.933834    1.427563    0.806957
    126          1           0       16.243558    0.059774    1.547059
    127          1           0       18.217543   -0.243884   -0.533168
    128          1           0       17.765919    1.253502   -1.110669
    129          1           0       18.250718    2.180997    1.101464
    130          1           0       18.734747    0.470279    1.785074
    131          1           0       20.619222    0.623735   -0.052853
    132          1           0       19.628521    3.379038   -0.874791
    133          1           0       21.464122    2.391692   -1.467737
    134          1           0       20.065896    1.587395   -1.695682
    135          1           0       20.919959    1.517690    2.419273
    136          1           0       22.030858    2.280835    1.280528
    137          1           0       20.529936    2.995200    1.737438
 ---------------------------------------------------------------------

 SCF Done:  E(RCAM-B3LYP) =  -2932.47359207     A.U. after   18 cycles

 Excitation energies and oscillator strengths:

 Excited State   1:      Singlet-A      1.8417 eV  673.22 nm  f=0.3258  <S**2>=0.000
     240 -> 243       -0.21374
     241 -> 242        0.67274
 This state for optimization and/or second-order correction.
 Total Energy, E(TD-HF/TD-KS) =  -2932.40591206
 Copying the excited state density for this state as the 1-particle RhoCI density.

 The electronic state is 1-A.
 Alpha  occ. eigenvalues --  -46.83994 -19.29035 -19.23349 -19.22358 -19.21100
 Alpha  occ. eigenvalues --  -19.20217 -14.42061 -14.39986 -14.39682 -14.39285
 Alpha  occ. eigenvalues --  -10.39300 -10.38568 -10.36126 -10.33405 -10.30835
 Alpha  occ. eigenvalues --  -10.30748 -10.30372 -10.30197 -10.30170 -10.29788
 Alpha  occ. eigenvalues --  -10.29088 -10.28934 -10.28597 -10.28558 -10.28306
 Alpha  occ. eigenvalues --  -10.27994 -10.27751 -10.27449 -10.27399 -10.27220
 Alpha  occ. eigenvalues --  -10.26983 -10.26929 -10.26849 -10.26837 -10.26772
 Alpha  occ. eigenvalues --  -10.26630 -10.26489 -10.26432 -10.26328 -10.26317
 Alpha  occ. eigenvalues --  -10.26296 -10.26178 -10.26174 -10.26148 -10.26136
 Alpha  occ. eigenvalues --  -10.26095 -10.25947 -10.25947 -10.25874 -10.25860
 Alpha  occ. eigenvalues --  -10.25856 -10.25834 -10.25733 -10.25337 -10.25289
 Alpha  occ. eigenvalues --  -10.25158 -10.24995 -10.24649 -10.23706 -10.23603
 Alpha  occ. eigenvalues --  -10.23540 -10.23380 -10.22566 -10.22353 -10.22254
 Alpha  occ. eigenvalues --   -3.13130  -1.87836  -1.87364  -1.87317  -1.21241
 Alpha  occ. eigenvalues --   -1.20187  -1.10750  -1.10406  -1.08667  -1.05566
 Alpha  occ. eigenvalues --   -1.02996  -1.02830  -1.01689  -0.92474  -0.92438
 Alpha  occ. eigenvalues --   -0.92293  -0.90750  -0.90192  -0.89588  -0.89310
 Alpha  occ. eigenvalues --   -0.89214  -0.89098  -0.88677  -0.87956  -0.86698
 Alpha  occ. eigenvalues --   -0.85240  -0.84366  -0.83540  -0.83199  -0.82118
 Alpha  occ. eigenvalues --   -0.82047  -0.81740  -0.81288  -0.80474  -0.79314
 Alpha  occ. eigenvalues --   -0.77805  -0.77190  -0.76962  -0.76777  -0.76621
 Alpha  occ. eigenvalues --   -0.76293  -0.75804  -0.74363  -0.73853  -0.73384
 Alpha  occ. eigenvalues --   -0.72086  -0.71438  -0.69713  -0.69030  -0.68942
 Alpha  occ. eigenvalues --   -0.67591  -0.67058  -0.65986  -0.65584  -0.65223
 Alpha  occ. eigenvalues --   -0.64887  -0.64785  -0.63323  -0.63219  -0.62943
 Alpha  occ. eigenvalues --   -0.62206  -0.60979  -0.60676  -0.59663  -0.59535
 Alpha  occ. eigenvalues --   -0.59101  -0.58565  -0.58150  -0.57567  -0.57359
 Alpha  occ. eigenvalues --   -0.57035  -0.56244  -0.55730  -0.55653  -0.55629
 Alpha  occ. eigenvalues --   -0.55012  -0.54755  -0.54118  -0.53865  -0.53764
 Alpha  occ. eigenvalues --   -0.53567  -0.53247  -0.52553  -0.52492  -0.52160
 Alpha  occ. eigenvalues --   -0.51759  -0.51621  -0.51315  -0.51126  -0.50916
 Alpha  occ. eigenvalues --   -0.50581  -0.50497  -0.50314  -0.49830  -0.49667
 Alpha  occ. eigenvalues --   -0.49493  -0.49337  -0.49131  -0.49090  -0.48858
 Alpha  occ. eigenvalues --   -0.48538  -0.48242  -0.47772  -0.47605  -0.47559
 Alpha  occ. eigenvalues --   -0.47451  -0.47023  -0.46846  -0.46648  -0.46349
 Alpha  occ. eigenvalues --   -0.46214  -0.45905  -0.45704  -0.45324  -0.45183
 Alpha  occ. eigenvalues --   -0.44474  -0.44381  -0.44140  -0.44080  -0.43907
 Alpha  occ. eigenvalues --   -0.43647  -0.43512  -0.43336  -0.43215  -0.43146
 Alpha  occ. eigenvalues --   -0.43029  -0.42971  -0.42849  -0.42661  -0.42579
 Alpha  occ. eigenvalues --   -0.42411  -0.42185  -0.41971  -0.41643  -0.41574
 Alpha  occ. eigenvalues --   -0.41498  -0.41439  -0.41188  -0.40805  -0.40554
 Alpha  occ. eigenvalues --   -0.40254  -0.40071  -0.39687  -0.39334  -0.39097
 Alpha  occ. eigenvalues --   -0.38875  -0.38766  -0.38667  -0.38388  -0.38245
 Alpha  occ. eigenvalues --   -0.37852  -0.37728  -0.37327  -0.36935  -0.36770
 Alpha  occ. eigenvalues --   -0.36377  -0.36077  -0.35930  -0.35480  -0.35307
 Alpha  occ. eigenvalues --   -0.34774  -0.34660  -0.34001  -0.33974  -0.33439
 Alpha  occ. eigenvalues --   -0.33314  -0.32970  -0.32105  -0.31992  -0.30735
 Alpha  occ. eigenvalues --   -0.30316  -0.28184  -0.28168  -0.26640  -0.23392
 Alpha  occ. eigenvalues --   -0.20738
 Alpha virt. eigenvalues --   -0.07304  -0.02889   0.00781   0.03405   0.06052
 Alpha virt. eigenvalues --    0.06151   0.06415   0.06973   0.07284   0.07538
 Alpha virt. eigenvalues --    0.08159   0.10567   0.10888   0.11345   0.11444

 Mulliken charges:
               1
     1  Mg   0.820724
     2  C    0.095566
     3  C   -0.159033
     4  C   -0.145314
     5  C   -0.165921
     6  N   -0.612028
     7  C    0.249753
     8  C   -0.173236
     9  C   -0.125466
    10  C    0.300893
    11  C   -0.276627
    12  C   -0.174507
    13  C   -0.274986
    14  C    0.603856
    15  O   -0.398779
    16  O   -0.519574
    17  N   -0.697784
    18  C    0.272547
    19  C    0.020920
    20  C    0.075994
    21  C    0.282717
    22  C   -0.375186
    23  C   -0.150361
    24  C   -0.229766
    25  N   -0.731746
    26  C    0.277758
    27  C    0.036027
    28  C    0.071340
    29  C    0.358557
    30  C   -0.401334
    31  C   -0.269953
    32  C   -0.313233
    33  N   -0.675161
    34  C    0.264667
    35  C   -0.043089
    36  C    0.098188
    37  C    0.202793
    38  C   -0.347217
    39  C    0.368840
    40  O   -0.462529
    41  C   -0.325475
    42  C    0.609170
    43  O   -0.495307
    44  O   -0.377856
    45  C   -0.114189
    46  C    0.037509
    47  C   -0.143139
    48  C    0.168371
    49  C   -0.391632
    50  C   -0.205535
    51  C   -0.191539
    52  C   -0.148367
    53  C   -0.085078
    54  C   -0.341070
    55  C   -0.175039
    56  C   -0.188526
    57  C   -0.172979
    58  C   -0.016900
    59  C   -0.285331
    60  C   -0.200002
    61  C   -0.198655
    62  C   -0.153096
    63  C   -0.044215
    64  C   -0.284865
    65  C   -0.305021
    66  H    0.074773
    67  H    0.085526
    68  H    0.103789
    69  H    0.118190
    70  H    0.101867
    71  H    0.103427
    72  H    0.109760
    73  H    0.136964
    74  H    0.112255
    75  H    0.122883
    76  H    0.148900
    77  H    0.138653
    78  H    0.126765
    79  H    0.133788
    80  H    0.088639
    81  H    0.099193
    82  H    0.102791
    83  H    0.093620
    84  H    0.116581
    85  H    0.105105
    86  H    0.127186
    87  H    0.065702
    88  H    0.119713
    89  H    0.096032
    90  H    0.118316
    91  H    0.094477
    92  H    0.090326
    93  H    0.144146
    94  H    0.138937
    95  H    0.157690
    96  H    0.126435
    97  H    0.133802
    98  H    0.125951
    99  H    0.065906
   100  H    0.103173
   101  H    0.092143
   102  H    0.112975
   103  H    0.114893
   104  H    0.141332
   105  H    0.095555
   106  H    0.079845
   107  H    0.075429
   108  H    0.104850
   109  H    0.074291
   110  H    0.099579
   111  H    0.083234
   112  H    0.104104
   113  H    0.104706
   114  H    0.104719
   115  H    0.042070
   116  H    0.103238
   117  H    0.101762
   118  H    0.103956
   119  H    0.097443
   120  H    0.093686
   121  H    0.084559
   122  H    0.080305
   123  H    0.074630
   124  H    0.102998
   125  H    0.054609
   126  H    0.100035
   127  H    0.087817
   128  H    0.095071
   129  H    0.080913
   130  H    0.071105
   131  H    0.097877
   132  H    0.056842
   133  H    0.069890
   134  H    0.123380
   135  H    0.105675
   136  H    0.102527
   137  H    0.101149
 Sum of Mulliken charges =   0.00000

 Dipole moment (field-independent basis, Debye):
    X=              1.0159    Y=              3.2774    Z=             -0.4301  Tot=              3.4581
 Quadrupole moment (field-independent basis, Debye-Ang):
   XX=           -337.3651   YY=           -392.4753   ZZ=           -396.0456
   XY=            -23.8209   XZ=              2.1950   YZ=             -2.8401

 Normal termination of Gaussian 09 at Mon Jul  1 01:46:53 2019.
