 Gaussian 09, Revision D.01,
 Gaussian 09:  ES64L-G09RevD.01 24-Apr-2013

 -------------------------------------
 # td=(NStates=1) CAM-B3LYP/6-31G(d,p)
 -------------------------------------

 --
 TD
 --
 Symbolic Z-matrix:
 Charge =  0 Multiplicity = 1

                         Standard orientation:
 ---------------------------------------------------------------------
 Center     Atomic      Atomic             Coordinates (Angstroms)
 Number     Number       Type             X           Y           Z
 ---------------------------------------------------------------------
      1         12           0       -7.061049    0.506775    0.157305
      2          6           0       -4.815794   -2.026134    0.416606
      3          6           0       -4.758299    2.744884    1.037467
      4          6           0       -9.508963    3.059097   -0.180938
      5          6           0       -9.627393   -1.775844   -0.698135
      6          7           0       -5.074687    0.348422    0.716171
      7          6           0       -4.296461   -0.822577    0.768685
      8          6           0       -2.855753   -0.469644    1.100144
      9          6           0       -2.944337    1.018967    1.527761
     10          6           0       -4.365610    1.436825    1.036313
     11          6           0       -2.774765    1.217347    3.019162
     12          6           0       -1.832559   -0.849352    0.043529
     13          6           0       -0.377563   -0.591363    0.435585
     14          6           0        0.578705   -0.599390   -0.712157
     15          8           0        0.243318   -0.853783   -1.855194
     16          8           0        1.879969   -0.622469   -0.284988
     17          7           0       -7.098694    2.620066    0.398316
     18          6           0       -5.941874    3.366382    0.729133
     19          6           0       -6.359569    4.786498    0.865002
     20          6           0       -7.736592    4.813618    0.571453
     21          6           0       -8.110260    3.488595    0.201322
     22          6           0       -5.429103    5.884751    1.181673
     23          6           0       -8.645315    6.069859    0.237514
     24          6           0       -8.184428    7.370813    0.337838
     25          7           0       -9.111397    0.705247   -0.467136
     26          6           0       -9.883743    1.783874   -0.483379
     27          6           0      -11.223649    1.571504   -0.955612
     28          6           0      -11.302997    0.136113   -1.055306
     29          6           0       -9.921063   -0.421772   -0.666899
     30          6           0      -12.366081    2.489134   -1.386796
     31          6           0      -12.387736   -0.676786   -1.510776
     32          6           0      -12.438860   -0.941322   -2.970666
     33          7           0       -7.240120   -1.331890   -0.188979
     34          6           0       -8.301127   -2.221242   -0.561969
     35          6           0       -7.882582   -3.602571   -0.483852
     36          6           0       -6.577039   -3.554090   -0.107385
     37          6           0       -6.223297   -2.196778    0.053117
     38          6           0       -8.736076   -4.724502   -0.837953
     39          6           0       -5.376921   -4.401827    0.089461
     40          8           0       -5.341536   -5.536511    0.121879
     41          6           0       -4.179592   -3.317516    0.392607
     42          6           0       -3.533482   -3.716753    1.848688
     43          8           0       -3.812655   -3.125823    2.819901
     44          8           0       -2.647235   -4.690866    1.743561
     45          6           0       -2.025986   -5.167433    2.957836
     46          6           0        2.861105   -0.763313   -1.297061
     47          6           0        4.222713   -0.593976   -0.698278
     48          6           0        5.148232    0.241429   -1.082872
     49          6           0        5.022984    1.179453   -2.270461
     50          6           0        6.354184    0.467043   -0.202192
     51          6           0        7.622031   -0.058605   -0.838990
     52          6           0        8.924499    0.074263   -0.094240
     53          6           0       10.223957   -0.350496   -0.989167
     54          6           0       10.101018   -1.736689   -1.445640
     55          6           0       11.414094   -0.162981    0.018261
     56          6           0       12.700313   -0.525375   -0.711245
     57          6           0       13.887955   -0.158912    0.237473
     58          6           0       15.263962   -0.161000   -0.447842
     59          6           0       15.663035   -1.582795   -0.943709
     60          6           0       16.351667    0.281167    0.580798
     61          6           0       17.679573    0.499183   -0.077751
     62          6           0       18.765731    1.246809    0.806147
     63          6           0       20.171059    1.250269    0.271837
     64          6           0       20.297715    2.182317   -0.926770
     65          6           0       21.276049    1.728284    1.328996
     66          1           0       -3.846005    3.515903    1.120515
     67          1           0      -10.188772    3.947658   -0.265612
     68          1           0      -10.361669   -2.426101   -1.009515
     69          1           0       -2.562354   -1.062538    2.070415
     70          1           0       -2.219972    1.609242    0.939315
     71          1           0       -1.680639    1.207980    3.335330
     72          1           0       -3.168044    2.335911    2.974445
     73          1           0       -3.626325    0.737289    3.435013
     74          1           0       -2.081978   -1.780243   -0.557994
     75          1           0       -1.932715   -0.305305   -0.990797
     76          1           0       -0.280489    0.437475    0.849907
     77          1           0       -0.150210   -1.277770    1.266017
     78          1           0       -4.916558    6.456224    0.341804
     79          1           0       -5.976782    6.604124    2.010948
     80          1           0       -4.578485    5.315093    1.730926
     81          1           0       -9.683010    5.795020    0.245682
     82          1           0       -8.899745    8.112014    0.102881
     83          1           0       -7.277155    7.628072    0.294117
     84          1           0      -11.907773    3.372988   -2.008442
     85          1           0      -13.119224    1.936512   -1.998579
     86          1           0      -13.053653    2.955561   -0.393752
     87          1           0      -12.135128   -1.627190   -1.134323
     88          1           0      -13.520624   -0.623235   -1.051508
     89          1           0      -13.286951   -1.453969   -3.315234
     90          1           0      -12.443091   -0.015503   -3.592928
     91          1           0      -11.524466   -1.449165   -3.329940
     92          1           0       -9.210112   -4.598760   -1.873815
     93          1           0       -8.177652   -5.614442   -0.794803
     94          1           0       -9.602294   -4.834906   -0.222852
     95          1           0       -3.480021   -3.746657   -0.470388
     96          1           0       -1.710203   -4.303432    3.536119
     97          1           0       -2.904206   -5.646146    3.560232
     98          1           0       -1.422271   -5.993715    2.779483
     99          1           0        2.807131   -1.876424   -1.800777
    100          1           0        2.680599   -0.223846   -2.207319
    101          1           0        4.069745   -1.180838    0.236416
    102          1           0        4.055173    1.183334   -2.780363
    103          1           0        5.215649    2.259713   -1.967316
    104          1           0        5.922710    1.078746   -2.965938
    105          1           0        6.395437    1.636587    0.080468
    106          1           0        6.268394   -0.066567    0.824926
    107          1           0        7.380900   -1.154675   -0.941023
    108          1           0        7.803255    0.443323   -1.845174
    109          1           0        9.080099    1.046878    0.327234
    110          1           0        8.965943   -0.501583    0.886495
    111          1           0       10.510273    0.250747   -1.915790
    112          1           0        9.339092   -1.925245   -2.173916
    113          1           0       11.038768   -2.140500   -2.029884
    114          1           0        9.958828   -2.560008   -0.677077
    115          1           0       11.472115    0.917287    0.339815
    116          1           0       11.183144   -0.757777    0.853474
    117          1           0       12.608923   -1.552144   -0.955016
    118          1           0       12.669447    0.005093   -1.771731
    119          1           0       13.778092    0.922526    0.534268
    120          1           0       13.957936   -0.631753    1.216508
    121          1           0       15.120929    0.613196   -1.195866
    122          1           0       15.936835   -2.334359   -0.068914
    123          1           0       14.802840   -1.847262   -1.505414
    124          1           0       16.468035   -1.699437   -1.597833
    125          1           0       16.139048    1.277507    1.089134
    126          1           0       16.374294   -0.317088    1.438712
    127          1           0       18.070925   -0.462220   -0.082936
    128          1           0       17.465258    1.099800   -0.956265
    129          1           0       18.418055    2.207599    0.951950
    130          1           0       18.670575    0.624462    1.747515
    131          1           0       20.502675    0.288888    0.004801
    132          1           0       19.998320    3.263771   -0.659231
    133          1           0       21.547480    2.317241   -1.032972
    134          1           0       19.682220    1.938164   -1.800337
    135          1           0       21.182611    1.086608    2.280020
    136          1           0       22.347899    1.545771    0.883942
    137          1           0       21.236657    2.873260    1.456994
 ---------------------------------------------------------------------

 SCF Done:  E(RCAM-B3LYP) =  -2932.74408443     A.U. after   18 cycles

 Excitation energies and oscillator strengths:

 Excited State   1:      Singlet-A      1.8852 eV  657.68 nm  f=0.2843  <S**2>=0.000
     240 -> 243        0.20850
     241 -> 242        0.67349
 This state for optimization and/or second-order correction.
 Total Energy, E(TD-HF/TD-KS) =  -2932.67480500
 Copying the excited state density for this state as the 1-particle RhoCI density.

 The electronic state is 1-A.
 Alpha  occ. eigenvalues --  -46.83768 -19.27121 -19.26706 -19.21727 -19.21475
 Alpha  occ. eigenvalues --  -19.21189 -14.41950 -14.39788 -14.39078 -14.38976
 Alpha  occ. eigenvalues --  -10.39967 -10.39346 -10.35027 -10.32065 -10.31981
 Alpha  occ. eigenvalues --  -10.30813 -10.30538 -10.29837 -10.29404 -10.29382
 Alpha  occ. eigenvalues --  -10.29180 -10.29009 -10.28972 -10.28889 -10.28490
 Alpha  occ. eigenvalues --  -10.28375 -10.28190 -10.27935 -10.27784 -10.27434
 Alpha  occ. eigenvalues --  -10.27390 -10.27344 -10.27328 -10.27296 -10.27209
 Alpha  occ. eigenvalues --  -10.27146 -10.26996 -10.26982 -10.26938 -10.26878
 Alpha  occ. eigenvalues --  -10.26713 -10.26655 -10.26508 -10.26479 -10.26390
 Alpha  occ. eigenvalues --  -10.26360 -10.26082 -10.26023 -10.25961 -10.25792
 Alpha  occ. eigenvalues --  -10.25684 -10.25679 -10.25568 -10.25461 -10.25407
 Alpha  occ. eigenvalues --  -10.25035 -10.24993 -10.24749 -10.24532 -10.24502
 Alpha  occ. eigenvalues --  -10.24432 -10.24237 -10.24128 -10.23840 -10.23699
 Alpha  occ. eigenvalues --   -3.12988  -1.87673  -1.87236  -1.87186  -1.19743
 Alpha  occ. eigenvalues --   -1.18583  -1.16515  -1.11253  -1.09929  -1.04106
 Alpha  occ. eigenvalues --   -1.03006  -1.02524  -1.01499  -0.92286  -0.91477
 Alpha  occ. eigenvalues --   -0.90516  -0.89966  -0.89503  -0.89308  -0.88457
 Alpha  occ. eigenvalues --   -0.87855  -0.87622  -0.87404  -0.87128  -0.86367
 Alpha  occ. eigenvalues --   -0.85138  -0.83839  -0.83313  -0.83115  -0.82099
 Alpha  occ. eigenvalues --   -0.81741  -0.81169  -0.80862  -0.79857  -0.78557
 Alpha  occ. eigenvalues --   -0.77374  -0.76465  -0.76124  -0.75668  -0.75232
 Alpha  occ. eigenvalues --   -0.74418  -0.74175  -0.73402  -0.73299  -0.72594
 Alpha  occ. eigenvalues --   -0.70925  -0.70389  -0.69396  -0.68812  -0.67518
 Alpha  occ. eigenvalues --   -0.66597  -0.65734  -0.64986  -0.64751  -0.64271
 Alpha  occ. eigenvalues --   -0.64173  -0.63834  -0.63705  -0.62916  -0.62504
 Alpha  occ. eigenvalues --   -0.62395  -0.61246  -0.60121  -0.59737  -0.59093
 Alpha  occ. eigenvalues --   -0.58648  -0.58318  -0.57871  -0.57024  -0.56438
 Alpha  occ. eigenvalues --   -0.55969  -0.55657  -0.55341  -0.55231  -0.54949
 Alpha  occ. eigenvalues --   -0.54633  -0.54595  -0.54193  -0.53604  -0.53331
 Alpha  occ. eigenvalues --   -0.53109  -0.52737  -0.52170  -0.52047  -0.51832
 Alpha  occ. eigenvalues --   -0.51145  -0.51007  -0.50865  -0.50674  -0.50387
 Alpha  occ. eigenvalues --   -0.50132  -0.50006  -0.49840  -0.49626  -0.49546
 Alpha  occ. eigenvalues --   -0.49384  -0.48993  -0.48804  -0.48588  -0.48291
 Alpha  occ. eigenvalues --   -0.48205  -0.47939  -0.47732  -0.47136  -0.47108
 Alpha  occ. eigenvalues --   -0.46851  -0.46658  -0.46568  -0.46464  -0.46181
 Alpha  occ. eigenvalues --   -0.46055  -0.45925  -0.45705  -0.45445  -0.45251
 Alpha  occ. eigenvalues --   -0.45148  -0.45047  -0.44715  -0.44562  -0.44333
 Alpha  occ. eigenvalues --   -0.44066  -0.43895  -0.43760  -0.43601  -0.43465
 Alpha  occ. eigenvalues --   -0.43060  -0.42725  -0.42571  -0.42412  -0.42205
 Alpha  occ. eigenvalues --   -0.41748  -0.41549  -0.41409  -0.41356  -0.41330
 Alpha  occ. eigenvalues --   -0.40916  -0.40808  -0.40773  -0.40520  -0.40185
 Alpha  occ. eigenvalues --   -0.39937  -0.39910  -0.39611  -0.39079  -0.39049
 Alpha  occ. eigenvalues --   -0.38492  -0.38284  -0.38066  -0.38010  -0.37996
 Alpha  occ. eigenvalues --   -0.37608  -0.37360  -0.37109  -0.37086  -0.36787
 Alpha  occ. eigenvalues --   -0.36549  -0.36328  -0.36173  -0.35745  -0.35450
 Alpha  occ. eigenvalues --   -0.35174  -0.34887  -0.33997  -0.33952  -0.33872
 Alpha  occ. eigenvalues --   -0.32705  -0.32599  -0.31939  -0.30729  -0.30177
 Alpha  occ. eigenvalues --   -0.30097  -0.29477  -0.27391  -0.26870  -0.23362
 Alpha  occ. eigenvalues --   -0.20565
 Alpha virt. eigenvalues --   -0.06960  -0.02498   0.02273   0.04165   0.04983
 Alpha virt. eigenvalues --    0.05953   0.06516   0.06595   0.06914   0.07539
 Alpha virt. eigenvalues --    0.08156   0.10328   0.10883   0.11534   0.11937

 Mulliken charges:
               1
     1  Mg   0.832185
     2  C    0.097940
     3  C   -0.216331
     4  C   -0.185350
     5  C   -0.153067
     6  N   -0.662189
     7  C    0.314393
     8  C   -0.139712
     9  C   -0.158386
    10  C    0.348104
    11  C   -0.289562
    12  C   -0.198887
    13  C   -0.259601
    14  C    0.608994
    15  O   -0.459386
    16  O   -0.474096
    17  N   -0.678179
    18  C    0.312926
    19  C    0.020352
    20  C   -0.024276
    21  C    0.294337
    22  C   -0.377967
    23  C   -0.070009
    24  C   -0.226808
    25  N   -0.679547
    26  C    0.334633
    27  C    0.061370
    28  C    0.000585
    29  C    0.292857
    30  C   -0.350938
    31  C   -0.271007
    32  C   -0.305415
    33  N   -0.766828
    34  C    0.227556
    35  C    0.027991
    36  C   -0.000868
    37  C    0.305203
    38  C   -0.389693
    39  C    0.354930
    40  O   -0.383890
    41  C   -0.378183
    42  C    0.612874
    43  O   -0.443093
    44  O   -0.446644
    45  C   -0.091790
    46  C    0.014126
    47  C   -0.137681
    48  C    0.145653
    49  C   -0.369569
    50  C   -0.226259
    51  C   -0.161231
    52  C   -0.180092
    53  C   -0.066357
    54  C   -0.309478
    55  C   -0.165425
    56  C   -0.188414
    57  C   -0.179092
    58  C   -0.059110
    59  C   -0.310371
    60  C   -0.190407
    61  C   -0.171037
    62  C   -0.172725
    63  C   -0.039539
    64  C   -0.297998
    65  C   -0.311105
    66  H    0.081392
    67  H    0.088941
    68  H    0.094762
    69  H    0.113056
    70  H    0.101174
    71  H    0.116578
    72  H    0.088693
    73  H    0.138628
    74  H    0.124878
    75  H    0.109823
    76  H    0.130244
    77  H    0.141890
    78  H    0.126469
    79  H    0.111468
    80  H    0.100428
    81  H    0.097742
    82  H    0.100084
    83  H    0.105220
    84  H    0.112255
    85  H    0.128047
    86  H    0.083016
    87  H    0.112165
    88  H    0.089042
    89  H    0.110443
    90  H    0.100054
    91  H    0.104188
    92  H    0.116619
    93  H    0.143125
    94  H    0.130880
    95  H    0.144694
    96  H    0.140465
    97  H    0.117891
    98  H    0.141231
    99  H    0.086916
   100  H    0.122067
   101  H    0.101529
   102  H    0.120217
   103  H    0.112987
   104  H    0.116187
   105  H    0.077058
   106  H    0.092244
   107  H    0.102996
   108  H    0.088197
   109  H    0.094791
   110  H    0.081194
   111  H    0.080916
   112  H    0.111631
   113  H    0.081843
   114  H    0.094348
   115  H    0.084985
   116  H    0.100212
   117  H    0.114933
   118  H    0.073280
   119  H    0.085473
   120  H    0.093707
   121  H    0.087603
   122  H    0.083533
   123  H    0.103900
   124  H    0.114363
   125  H    0.062883
   126  H    0.090999
   127  H    0.103294
   128  H    0.091861
   129  H    0.093102
   130  H    0.072599
   131  H    0.095748
   132  H    0.089284
   133  H    0.068567
   134  H    0.108907
   135  H    0.094912
   136  H    0.087765
   137  H    0.097973
 Sum of Mulliken charges =   0.00000

 Dipole moment (field-independent basis, Debye):
    X=              1.8150    Y=              1.7004    Z=              0.3457  Tot=              2.5110
 Quadrupole moment (field-independent basis, Debye-Ang):
   XX=           -378.9753   YY=           -387.7156   ZZ=           -399.7554
   XY=            -10.4563   XZ=             12.7920   YZ=             -7.4132

 Normal termination of Gaussian 09 at Sun Jun 30 03:10:10 2019.
