 Gaussian 09, Revision D.01,
 Gaussian 09:  ES64L-G09RevD.01 24-Apr-2013

 -------------------------------------
 # td=(NStates=1) CAM-B3LYP/6-31G(d,p)
 -------------------------------------

 --
 TD
 --
 Symbolic Z-matrix:
 Charge =  0 Multiplicity = 1

                         Standard orientation:
 ---------------------------------------------------------------------
 Center     Atomic      Atomic             Coordinates (Angstroms)
 Number     Number       Type             X           Y           Z
 ---------------------------------------------------------------------
      1         12           0       -7.158192    0.535936    0.145259
      2          6           0       -4.837764   -2.029348    0.466193
      3          6           0       -4.851620    2.805240    1.274665
      4          6           0       -9.461264    3.105697   -0.254138
      5          6           0       -9.521085   -1.716079   -0.910991
      6          7           0       -5.176839    0.422480    0.849023
      7          6           0       -4.289604   -0.705337    0.753101
      8          6           0       -2.905539   -0.275853    1.209260
      9          6           0       -2.934534    1.102733    1.653210
     10          6           0       -4.475942    1.518309    1.246454
     11          6           0       -2.814992    1.345081    3.209677
     12          6           0       -1.859105   -0.620979    0.157151
     13          6           0       -0.377470   -0.286912    0.655567
     14          6           0        0.658175   -0.675183   -0.433623
     15          8           0        0.334059   -1.017642   -1.537215
     16          8           0        1.849068   -0.439935    0.035450
     17          7           0       -7.154426    2.641503    0.328835
     18          6           0       -6.119282    3.369639    0.827776
     19          6           0       -6.423166    4.769354    0.760570
     20          6           0       -7.745227    4.798772    0.369904
     21          6           0       -8.188783    3.395728    0.198937
     22          6           0       -5.557552    5.890310    1.113761
     23          6           0       -8.633574    5.936074    0.203747
     24          6           0       -8.275863    7.253046   -0.102456
     25          7           0       -9.160681    0.636661   -0.459342
     26          6           0       -9.920021    1.777032   -0.565131
     27          6           0      -11.205638    1.412543   -1.103792
     28          6           0      -11.241516    0.097953   -1.246887
     29          6           0       -9.993785   -0.442610   -0.765712
     30          6           0      -12.286026    2.395420   -1.419691
     31          6           0      -12.389758   -0.802190   -1.705295
     32          6           0      -12.228695   -1.253804   -3.220359
     33          7           0       -7.230200   -1.378817   -0.155242
     34          6           0       -8.297247   -2.250960   -0.515391
     35          6           0       -7.877147   -3.544948   -0.503745
     36          6           0       -6.523787   -3.560417   -0.167743
     37          6           0       -6.215039   -2.221601    0.083916
     38          6           0       -8.763145   -4.752232   -0.744211
     39          6           0       -5.319483   -4.335674    0.136146
     40          8           0       -5.269759   -5.581271   -0.006242
     41          6           0       -4.184948   -3.248700    0.444030
     42          6           0       -3.556215   -3.609918    1.844227
     43          8           0       -3.760881   -3.046052    2.837385
     44          8           0       -2.798349   -4.641129    1.755036
     45          6           0       -2.118492   -5.096837    2.845067
     46          6           0        2.798072   -0.696109   -1.079040
     47          6           0        4.193732   -0.522491   -0.563696
     48          6           0        5.143679    0.351266   -0.892479
     49          6           0        4.992239    1.358251   -2.100271
     50          6           0        6.435500    0.417140   -0.185982
     51          6           0        7.543779   -0.046135   -1.020600
     52          6           0        8.888133   -0.126653   -0.140968
     53          6           0       10.162483   -0.495976   -0.972916
     54          6           0       10.015839   -1.863984   -1.479622
     55          6           0       11.460937   -0.447300   -0.093568
     56          6           0       12.762423   -0.627834   -0.802237
     57          6           0       13.990601   -0.152530    0.085602
     58          6           0       15.328714   -0.213870   -0.540991
     59          6           0       15.793036   -1.629828   -0.850655
     60          6           0       16.528558    0.496672    0.337269
     61          6           0       17.865106    0.618094   -0.180171
     62          6           0       18.834097    1.235723    0.732218
     63          6           0       20.281284    1.306998    0.229560
     64          6           0       20.444661    2.110763   -1.157898
     65          6           0       21.171484    1.819927    1.409090
     66          1           0       -3.996564    3.522718    1.645245
     67          1           0      -10.031861    4.002051   -0.324806
     68          1           0      -10.302777   -2.454339   -1.330685
     69          1           0       -2.519136   -0.756645    2.358786
     70          1           0       -2.255265    1.583593    1.199135
     71          1           0       -1.818793    0.882621    3.632191
     72          1           0       -2.899071    2.478205    3.379680
     73          1           0       -3.718429    0.769613    3.634725
     74          1           0       -1.933574   -1.612113   -0.202266
     75          1           0       -2.090833    0.072843   -0.725552
     76          1           0       -0.281363    0.662241    1.067278
     77          1           0       -0.073693   -0.716752    1.532213
     78          1           0       -4.965574    6.246501    0.281828
     79          1           0       -6.029256    6.800990    1.636355
     80          1           0       -4.816587    5.610890    1.906413
     81          1           0       -9.744709    5.618051    0.278542
     82          1           0       -9.120410    7.948820   -0.201845
     83          1           0       -7.250120    7.482449   -0.027775
     84          1           0      -11.750039    2.975139   -2.317936
     85          1           0      -13.141339    1.899390   -1.842369
     86          1           0      -12.716078    2.985605   -0.523573
     87          1           0      -12.700581   -1.587381   -1.086696
     88          1           0      -13.298284   -0.327251   -1.720711
     89          1           0      -13.244769   -1.634150   -3.351069
     90          1           0      -11.989215   -0.351984   -3.813961
     91          1           0      -11.375146   -1.902498   -3.312429
     92          1           0       -9.000036   -5.018825   -1.871642
     93          1           0       -8.114048   -5.698076   -0.381543
     94          1           0       -9.784518   -4.802908   -0.431257
     95          1           0       -3.586964   -3.468339   -0.508478
     96          1           0       -1.652249   -4.224683    3.415551
     97          1           0       -2.670931   -5.787901    3.506274
     98          1           0       -1.474773   -5.947395    2.504614
     99          1           0        2.867509   -1.835861   -1.312894
    100          1           0        2.505841   -0.145306   -1.888425
    101          1           0        4.402231   -1.290972    0.303673
    102          1           0        3.894316    1.196979   -2.330492
    103          1           0        5.136772    2.420681   -1.612634
    104          1           0        5.712911    1.270137   -2.923807
    105          1           0        6.520406    1.372850    0.174959
    106          1           0        6.519195   -0.189349    0.766101
    107          1           0        7.355106   -1.133458   -1.448120
    108          1           0        7.628556    0.604163   -1.748516
    109          1           0        9.174466    0.859807    0.380084
    110          1           0        8.905527   -0.944232    0.632047
    111          1           0       10.084212    0.188396   -1.758829
    112          1           0        9.022717   -2.136358   -2.128133
    113          1           0       10.891148   -2.224959   -1.990292
    114          1           0       10.004546   -2.654404   -0.631795
    115          1           0       11.387897    0.565377    0.217426
    116          1           0       11.346841   -0.948721    0.888261
    117          1           0       12.975951   -1.682429   -1.068895
    118          1           0       12.654211   -0.215452   -1.685664
    119          1           0       13.967722    0.883400    0.558688
    120          1           0       13.937397   -0.802618    1.116109
    121          1           0       15.346666    0.380880   -1.445644
    122          1           0       15.951036   -2.236259    0.035896
    123          1           0       14.949903   -2.153462   -1.388696
    124          1           0       16.699517   -1.831538   -1.430971
    125          1           0       16.184427    1.505380    0.620671
    126          1           0       16.257917    0.004780    1.343446
    127          1           0       18.157529   -0.377165   -0.385318
    128          1           0       17.912480    1.112835   -1.094807
    129          1           0       18.526154    2.229165    1.007584
    130          1           0       18.492858    0.545283    1.697192
    131          1           0       20.303296    0.190276    0.254405
    132          1           0       20.195058    3.134111   -1.139575
    133          1           0       21.549788    2.092773   -1.166986
    134          1           0       19.916116    1.658841   -1.860704
    135          1           0       20.801120    1.192420    2.241747
    136          1           0       22.059825    1.873620    1.023175
    137          1           0       20.872681    2.781277    1.653124
 ---------------------------------------------------------------------

 SCF Done:  E(RCAM-B3LYP) =  -2932.67569859     A.U. after   18 cycles

 Excitation energies and oscillator strengths:

 Excited State   1:      Singlet-A      2.0576 eV  602.57 nm  f=0.2698  <S**2>=0.000
     240 -> 242       -0.23845
     240 -> 243        0.20677
     241 -> 242        0.61220
     241 -> 243        0.13232
 This state for optimization and/or second-order correction.
 Total Energy, E(TD-HF/TD-KS) =  -2932.60008320
 Copying the excited state density for this state as the 1-particle RhoCI density.

 The electronic state is 1-A.
 Alpha  occ. eigenvalues --  -46.83875 -19.27675 -19.26178 -19.20743 -19.20227
 Alpha  occ. eigenvalues --  -19.19441 -14.41627 -14.39508 -14.39427 -14.38483
 Alpha  occ. eigenvalues --  -10.38923 -10.38466 -10.34746 -10.32340 -10.31546
 Alpha  occ. eigenvalues --  -10.31462 -10.31050 -10.30732 -10.29624 -10.29070
 Alpha  occ. eigenvalues --  -10.28419 -10.28259 -10.28078 -10.27981 -10.27936
 Alpha  occ. eigenvalues --  -10.27868 -10.27827 -10.27671 -10.27665 -10.27550
 Alpha  occ. eigenvalues --  -10.27187 -10.27065 -10.27055 -10.27030 -10.26910
 Alpha  occ. eigenvalues --  -10.26878 -10.26873 -10.26770 -10.26716 -10.26622
 Alpha  occ. eigenvalues --  -10.26582 -10.26550 -10.26459 -10.26327 -10.26220
 Alpha  occ. eigenvalues --  -10.26034 -10.25980 -10.25902 -10.25653 -10.25637
 Alpha  occ. eigenvalues --  -10.25406 -10.25341 -10.25287 -10.25280 -10.25147
 Alpha  occ. eigenvalues --  -10.24910 -10.24904 -10.24851 -10.24711 -10.24650
 Alpha  occ. eigenvalues --  -10.24388 -10.24199 -10.23916 -10.23056 -10.22714
 Alpha  occ. eigenvalues --   -3.12970  -1.87675  -1.87190  -1.87169  -1.22020
 Alpha  occ. eigenvalues --   -1.20233  -1.11730  -1.10255  -1.08079  -1.06053
 Alpha  occ. eigenvalues --   -1.03595  -1.02499  -1.01641  -0.93160  -0.92060
 Alpha  occ. eigenvalues --   -0.91150  -0.90362  -0.90157  -0.89506  -0.88989
 Alpha  occ. eigenvalues --   -0.88274  -0.88260  -0.87110  -0.86730  -0.86488
 Alpha  occ. eigenvalues --   -0.85063  -0.84618  -0.83807  -0.83628  -0.82867
 Alpha  occ. eigenvalues --   -0.82234  -0.81985  -0.80477  -0.79637  -0.78028
 Alpha  occ. eigenvalues --   -0.77599  -0.77527  -0.76961  -0.75708  -0.75513
 Alpha  occ. eigenvalues --   -0.75116  -0.74843  -0.74625  -0.73373  -0.72714
 Alpha  occ. eigenvalues --   -0.71226  -0.70955  -0.70140  -0.69783  -0.68115
 Alpha  occ. eigenvalues --   -0.67509  -0.67132  -0.66070  -0.65968  -0.64582
 Alpha  occ. eigenvalues --   -0.64146  -0.63879  -0.63354  -0.63291  -0.62154
 Alpha  occ. eigenvalues --   -0.62099  -0.61230  -0.61013  -0.59921  -0.59728
 Alpha  occ. eigenvalues --   -0.59272  -0.58526  -0.57780  -0.57583  -0.57167
 Alpha  occ. eigenvalues --   -0.56543  -0.56303  -0.55283  -0.55168  -0.54908
 Alpha  occ. eigenvalues --   -0.54731  -0.54501  -0.54105  -0.53987  -0.53509
 Alpha  occ. eigenvalues --   -0.53067  -0.52850  -0.52492  -0.52319  -0.52295
 Alpha  occ. eigenvalues --   -0.51620  -0.51517  -0.51457  -0.51049  -0.50930
 Alpha  occ. eigenvalues --   -0.50644  -0.50404  -0.50247  -0.49927  -0.49720
 Alpha  occ. eigenvalues --   -0.49372  -0.49214  -0.48697  -0.48391  -0.47976
 Alpha  occ. eigenvalues --   -0.47837  -0.47715  -0.47557  -0.47406  -0.47365
 Alpha  occ. eigenvalues --   -0.46980  -0.46897  -0.46816  -0.46434  -0.46152
 Alpha  occ. eigenvalues --   -0.45788  -0.45736  -0.45540  -0.45216  -0.45011
 Alpha  occ. eigenvalues --   -0.44868  -0.44841  -0.44716  -0.44485  -0.44208
 Alpha  occ. eigenvalues --   -0.43972  -0.43830  -0.43456  -0.43285  -0.43003
 Alpha  occ. eigenvalues --   -0.42849  -0.42802  -0.42680  -0.42473  -0.42281
 Alpha  occ. eigenvalues --   -0.41907  -0.41738  -0.41579  -0.41510  -0.41295
 Alpha  occ. eigenvalues --   -0.41082  -0.40964  -0.40697  -0.40567  -0.40446
 Alpha  occ. eigenvalues --   -0.40211  -0.40088  -0.39942  -0.39718  -0.39335
 Alpha  occ. eigenvalues --   -0.39249  -0.38699  -0.38558  -0.38427  -0.38046
 Alpha  occ. eigenvalues --   -0.37634  -0.37304  -0.37196  -0.36602  -0.36439
 Alpha  occ. eigenvalues --   -0.36246  -0.35879  -0.35763  -0.35726  -0.35556
 Alpha  occ. eigenvalues --   -0.35262  -0.35016  -0.34798  -0.33980  -0.33730
 Alpha  occ. eigenvalues --   -0.33400  -0.32735  -0.32204  -0.30491  -0.29990
 Alpha  occ. eigenvalues --   -0.29073  -0.29000  -0.28180  -0.27372  -0.22913
 Alpha  occ. eigenvalues --   -0.21455
 Alpha virt. eigenvalues --   -0.06925  -0.02699   0.01414   0.03950   0.05687
 Alpha virt. eigenvalues --    0.06396   0.06597   0.07429   0.07628   0.08333
 Alpha virt. eigenvalues --    0.09046   0.10673   0.11219   0.11757   0.12152

 Mulliken charges:
               1
     1  Mg   0.823620
     2  C    0.112202
     3  C   -0.207675
     4  C   -0.152931
     5  C   -0.177645
     6  N   -0.648341
     7  C    0.293819
     8  C   -0.140923
     9  C   -0.093881
    10  C    0.333593
    11  C   -0.308001
    12  C   -0.170353
    13  C   -0.292153
    14  C    0.624572
    15  O   -0.478253
    16  O   -0.450015
    17  N   -0.694669
    18  C    0.284607
    19  C    0.063584
    20  C   -0.009658
    21  C    0.349460
    22  C   -0.402169
    23  C   -0.098011
    24  C   -0.244754
    25  N   -0.677541
    26  C    0.299299
    27  C    0.007956
    28  C    0.039257
    29  C    0.267303
    30  C   -0.361050
    31  C   -0.258692
    32  C   -0.310410
    33  N   -0.764137
    34  C    0.276155
    35  C    0.019904
    36  C    0.034692
    37  C    0.303380
    38  C   -0.387502
    39  C    0.340687
    40  O   -0.484747
    41  C   -0.392911
    42  C    0.609228
    43  O   -0.440217
    44  O   -0.387308
    45  C   -0.097526
    46  C   -0.000274
    47  C   -0.147074
    48  C    0.104659
    49  C   -0.350750
    50  C   -0.216027
    51  C   -0.162111
    52  C   -0.186118
    53  C   -0.071103
    54  C   -0.293537
    55  C   -0.185039
    56  C   -0.168757
    57  C   -0.176492
    58  C   -0.053550
    59  C   -0.315777
    60  C   -0.197310
    61  C   -0.160426
    62  C   -0.174750
    63  C   -0.090583
    64  C   -0.320900
    65  C   -0.295910
    66  H    0.083029
    67  H    0.083089
    68  H    0.098875
    69  H    0.086667
    70  H    0.101221
    71  H    0.095088
    72  H    0.101210
    73  H    0.130246
    74  H    0.126622
    75  H    0.108463
    76  H    0.131152
    77  H    0.128338
    78  H    0.134671
    79  H    0.119879
    80  H    0.112577
    81  H    0.090619
    82  H    0.111019
    83  H    0.106588
    84  H    0.110909
    85  H    0.117262
    86  H    0.115408
    87  H    0.114911
    88  H    0.105381
    89  H    0.106854
    90  H    0.111300
    91  H    0.116274
    92  H    0.102279
    93  H    0.134984
    94  H    0.126692
    95  H    0.171366
    96  H    0.121943
    97  H    0.119027
    98  H    0.117795
    99  H    0.127156
   100  H    0.139608
   101  H    0.086644
   102  H    0.105739
   103  H    0.102924
   104  H    0.131880
   105  H    0.109516
   106  H    0.092681
   107  H    0.094733
   108  H    0.103204
   109  H    0.075288
   110  H    0.089953
   111  H    0.091600
   112  H    0.073665
   113  H    0.102012
   114  H    0.082847
   115  H    0.096594
   116  H    0.091041
   117  H    0.099210
   118  H    0.108278
   119  H    0.089080
   120  H    0.063995
   121  H    0.089127
   122  H    0.101712
   123  H    0.086276
   124  H    0.103326
   125  H    0.076858
   126  H    0.077987
   127  H    0.095394
   128  H    0.093026
   129  H    0.081735
   130  H    0.056359
   131  H    0.092589
   132  H    0.113625
   133  H    0.105255
   134  H    0.122507
   135  H    0.107900
   136  H    0.101666
   137  H    0.105256
 Sum of Mulliken charges =   0.00000

 Dipole moment (field-independent basis, Debye):
    X=              2.2787    Y=              5.8694    Z=             -0.0418  Tot=              6.2964
 Quadrupole moment (field-independent basis, Debye-Ang):
   XX=           -336.5572   YY=           -394.9910   ZZ=           -400.3087
   XY=            -19.4301   XZ=              0.0836   YZ=             -3.5216

 Normal termination of Gaussian 09 at Mon Jul  1 12:47:36 2019.
