 Gaussian 09, Revision D.01,
 Gaussian 09:  ES64L-G09RevD.01 24-Apr-2013

 -------------------------------------
 # td=(NStates=1) CAM-B3LYP/6-31G(d,p)
 -------------------------------------

 --
 TD
 --
 Symbolic Z-matrix:
 Charge =  0 Multiplicity = 1

                         Standard orientation:
 ---------------------------------------------------------------------
 Center     Atomic      Atomic             Coordinates (Angstroms)
 Number     Number       Type             X           Y           Z
 ---------------------------------------------------------------------
      1         12           0       -7.167023    0.560241    0.153441
      2          6           0       -4.873136   -1.913448    0.495527
      3          6           0       -4.866055    2.815638    1.265118
      4          6           0       -9.375333    3.093766   -0.318405
      5          6           0       -9.636868   -1.781045   -0.928035
      6          7           0       -5.163558    0.489850    0.762706
      7          6           0       -4.352493   -0.700602    0.793483
      8          6           0       -2.886624   -0.467989    1.170328
      9          6           0       -2.990664    1.038085    1.700228
     10          6           0       -4.337567    1.509000    1.204948
     11          6           0       -2.918795    1.108830    3.225673
     12          6           0       -1.844009   -0.630886    0.114978
     13          6           0       -0.399815   -0.602730    0.544756
     14          6           0        0.549691   -0.683670   -0.658263
     15          8           0        0.217414   -1.066147   -1.745616
     16          8           0        1.875115   -0.364383   -0.253297
     17          7           0       -7.129031    2.603153    0.404937
     18          6           0       -6.095405    3.353084    0.837073
     19          6           0       -6.462723    4.717108    0.881070
     20          6           0       -7.817119    4.801009    0.347146
     21          6           0       -8.141399    3.468219    0.110329
     22          6           0       -5.627272    5.812516    1.491009
     23          6           0       -8.642672    5.975723    0.336114
     24          6           0       -8.220869    7.283956    0.125321
     25          7           0       -9.079286    0.620214   -0.508140
     26          6           0       -9.812137    1.801898   -0.698297
     27          6           0      -11.242974    1.456366   -1.156697
     28          6           0      -11.242212    0.082730   -1.202614
     29          6           0       -9.900542   -0.383636   -0.863423
     30          6           0      -12.298900    2.450337   -1.410427
     31          6           0      -12.339958   -0.729287   -1.840062
     32          6           0      -12.295199   -0.978392   -3.296010
     33          7           0       -7.275620   -1.370334   -0.172332
     34          6           0       -8.379055   -2.223502   -0.475124
     35          6           0       -7.910242   -3.487645   -0.512954
     36          6           0       -6.546365   -3.518810   -0.072761
     37          6           0       -6.190381   -2.182290    0.066872
     38          6           0       -8.801151   -4.768501   -1.028398
     39          6           0       -5.309402   -4.336756    0.143838
     40          8           0       -5.129671   -5.458652    0.138480
     41          6           0       -4.295897   -3.237143    0.485027
     42          6           0       -3.679202   -3.645139    1.949383
     43          8           0       -3.845088   -3.011463    2.933650
     44          8           0       -2.908595   -4.806187    1.793228
     45          6           0       -2.347970   -5.188406    3.061802
     46          6           0        2.802430   -0.688342   -1.252118
     47          6           0        4.086824   -0.421467   -0.601818
     48          6           0        5.101219    0.337056   -1.022267
     49          6           0        5.028853    1.173424   -2.336813
     50          6           0        6.439512    0.339047   -0.215094
     51          6           0        7.724500   -0.175235   -0.965765
     52          6           0        9.027727    0.047895   -0.236414
     53          6           0       10.217280   -0.384903   -0.878417
     54          6           0       10.140367   -1.890897   -1.312355
     55          6           0       11.442104   -0.153431   -0.023169
     56          6           0       12.835640   -0.567378   -0.527343
     57          6           0       14.077941   -0.167307    0.368797
     58          6           0       15.429440   -0.283213   -0.391898
     59          6           0       15.776902   -1.752080   -0.791021
     60          6           0       16.470813    0.364189    0.437437
     61          6           0       17.948127    0.348774   -0.092813
     62          6           0       18.870688    1.244975    0.729715
     63          6           0       20.272093    1.400827    0.133171
     64          6           0       20.320397    2.198632   -1.131957
     65          6           0       21.273225    1.973854    1.113534
     66          1           0       -3.980634    3.590967    1.735659
     67          1           0      -10.198397    3.764298   -0.466569
     68          1           0      -10.362877   -2.550765   -1.322885
     69          1           0       -2.628754   -1.199525    2.079078
     70          1           0       -2.330432    1.784938    1.122171
     71          1           0       -1.910401    1.001196    3.654222
     72          1           0       -3.082291    2.195990    3.663782
     73          1           0       -3.781012    0.488680    3.767500
     74          1           0       -2.094525   -1.668914   -0.413693
     75          1           0       -2.211938    0.039144   -0.867810
     76          1           0       -0.199614    0.348853    0.855985
     77          1           0        0.013840   -1.295628    1.249100
     78          1           0       -5.003156    6.245960    0.805208
     79          1           0       -6.108126    6.567295    2.135932
     80          1           0       -4.957214    5.317688    2.267309
     81          1           0       -9.671970    5.855215    0.547940
     82          1           0       -9.065995    8.027256    0.173766
     83          1           0       -7.014106    7.613802    0.196235
     84          1           0      -11.943488    3.122398   -2.217794
     85          1           0      -13.284530    1.903177   -1.440285
     86          1           0      -12.473458    3.050232   -0.650408
     87          1           0      -12.703054   -1.590597   -1.331631
     88          1           0      -13.218138   -0.134129   -1.807826
     89          1           0      -13.263347   -1.222861   -3.663557
     90          1           0      -12.029881    0.114630   -3.756664
     91          1           0      -11.440421   -1.733838   -3.519678
     92          1           0       -8.988392   -4.836179   -2.222455
     93          1           0       -8.300957   -5.718457   -0.513641
     94          1           0       -9.749939   -4.814056   -0.485045
     95          1           0       -3.475606   -3.456006   -0.360335
     96          1           0       -1.636299   -4.302766    3.354785
     97          1           0       -3.163896   -5.473226    3.806070
     98          1           0       -1.815405   -6.149107    2.968290
     99          1           0        2.404244   -1.672738   -1.478288
    100          1           0        2.391949   -0.113847   -2.096049
    101          1           0        4.180507   -0.884158    0.441436
    102          1           0        4.070397    0.973269   -2.901137
    103          1           0        5.411915    2.008921   -1.989329
    104          1           0        5.613920    0.617655   -3.056061
    105          1           0        6.665758    1.432872    0.090566
    106          1           0        6.397228   -0.250584    0.654173
    107          1           0        7.397885   -1.247307   -1.058054
    108          1           0        7.619695    0.322189   -2.069527
    109          1           0        8.940715    1.250498    0.069810
    110          1           0        8.978184   -0.428910    0.677349
    111          1           0       10.415250    0.170905   -1.868354
    112          1           0        9.251663   -2.147350   -2.043886
    113          1           0       11.020517   -2.013652   -1.967011
    114          1           0       10.186590   -2.716024   -0.445431
    115          1           0       11.503290    0.709586    0.444553
    116          1           0       11.188503   -0.667081    0.851998
    117          1           0       12.989293   -1.558270   -0.787117
    118          1           0       12.951118    0.062399   -1.322914
    119          1           0       14.029556    0.769767    0.596396
    120          1           0       13.898247   -0.624320    1.237441
    121          1           0       15.372139    0.409846   -1.204536
    122          1           0       15.931655   -2.311494    0.145556
    123          1           0       15.051128   -2.314081   -1.251780
    124          1           0       16.823378   -2.041768   -1.293694
    125          1           0       16.334017    1.458953    0.543196
    126          1           0       16.451797   -0.160079    1.564689
    127          1           0       18.575296   -0.653331   -0.083252
    128          1           0       17.980377    0.415023   -1.314222
    129          1           0       18.520763    2.319053    0.854546
    130          1           0       18.940009    0.970572    1.838784
    131          1           0       20.673330    0.382082   -0.165302
    132          1           0       20.455484    3.468243   -1.063124
    133          1           0       21.357031    1.991460   -1.617712
    134          1           0       19.484231    2.103673   -2.036082
    135          1           0       21.280403    1.292073    2.047571
    136          1           0       22.341450    1.667731    0.724096
    137          1           0       21.326621    3.137291    1.453224
 ---------------------------------------------------------------------

 SCF Done:  E(RCAM-B3LYP) =  -2932.61322528     A.U. after   18 cycles

 Excitation energies and oscillator strengths:

 Excited State   1:      Singlet-A      1.9857 eV  624.37 nm  f=0.2497  <S**2>=0.000
     240 -> 243        0.22469
     241 -> 242        0.66150
 This state for optimization and/or second-order correction.
 Total Energy, E(TD-HF/TD-KS) =  -2932.54025072
 Copying the excited state density for this state as the 1-particle RhoCI density.

 The electronic state is 1-A.
 Alpha  occ. eigenvalues --  -46.82841 -19.26081 -19.25009 -19.22620 -19.22474
 Alpha  occ. eigenvalues --  -19.20107 -14.41823 -14.39953 -14.38790 -14.38005
 Alpha  occ. eigenvalues --  -10.39887 -10.39524 -10.34017 -10.32019 -10.31160
 Alpha  occ. eigenvalues --  -10.30516 -10.30389 -10.29953 -10.29634 -10.29028
 Alpha  occ. eigenvalues --  -10.28831 -10.28652 -10.28641 -10.28627 -10.28600
 Alpha  occ. eigenvalues --  -10.28374 -10.28308 -10.27927 -10.27828 -10.27662
 Alpha  occ. eigenvalues --  -10.27627 -10.27599 -10.27492 -10.27358 -10.27357
 Alpha  occ. eigenvalues --  -10.27306 -10.27256 -10.27209 -10.27088 -10.26959
 Alpha  occ. eigenvalues --  -10.26900 -10.26800 -10.26782 -10.26758 -10.26680
 Alpha  occ. eigenvalues --  -10.26563 -10.26461 -10.26364 -10.26290 -10.26259
 Alpha  occ. eigenvalues --  -10.26154 -10.26152 -10.25867 -10.25779 -10.25775
 Alpha  occ. eigenvalues --  -10.25726 -10.25685 -10.25524 -10.25227 -10.25112
 Alpha  occ. eigenvalues --  -10.24886 -10.23993 -10.23486 -10.23100 -10.22787
 Alpha  occ. eigenvalues --   -3.12116  -1.86807  -1.86395  -1.86275  -1.17966
 Alpha  occ. eigenvalues --   -1.17790  -1.15365  -1.10685  -1.10575  -1.04395
 Alpha  occ. eigenvalues --   -1.02888  -1.02244  -1.01180  -0.92998  -0.92012
 Alpha  occ. eigenvalues --   -0.90532  -0.90271  -0.89535  -0.89470  -0.89113
 Alpha  occ. eigenvalues --   -0.88888  -0.88125  -0.86778  -0.86185  -0.85388
 Alpha  occ. eigenvalues --   -0.84919  -0.84536  -0.83035  -0.82708  -0.82261
 Alpha  occ. eigenvalues --   -0.81147  -0.80337  -0.79872  -0.79526  -0.78250
 Alpha  occ. eigenvalues --   -0.77676  -0.77326  -0.76560  -0.75704  -0.74972
 Alpha  occ. eigenvalues --   -0.74873  -0.74519  -0.73576  -0.73401  -0.72403
 Alpha  occ. eigenvalues --   -0.71260  -0.70232  -0.69483  -0.68713  -0.67348
 Alpha  occ. eigenvalues --   -0.66790  -0.66225  -0.65731  -0.64804  -0.64218
 Alpha  occ. eigenvalues --   -0.63311  -0.63146  -0.62912  -0.62624  -0.61679
 Alpha  occ. eigenvalues --   -0.61381  -0.60245  -0.59877  -0.59345  -0.58495
 Alpha  occ. eigenvalues --   -0.58347  -0.57609  -0.57413  -0.57009  -0.56871
 Alpha  occ. eigenvalues --   -0.56135  -0.55726  -0.55402  -0.54961  -0.54723
 Alpha  occ. eigenvalues --   -0.54441  -0.54367  -0.53584  -0.53518  -0.53088
 Alpha  occ. eigenvalues --   -0.52790  -0.52573  -0.52453  -0.52285  -0.52125
 Alpha  occ. eigenvalues --   -0.51748  -0.51398  -0.51004  -0.50732  -0.50632
 Alpha  occ. eigenvalues --   -0.50439  -0.50176  -0.49895  -0.49635  -0.49493
 Alpha  occ. eigenvalues --   -0.49250  -0.48986  -0.48578  -0.48445  -0.48293
 Alpha  occ. eigenvalues --   -0.48205  -0.47781  -0.47719  -0.47537  -0.47349
 Alpha  occ. eigenvalues --   -0.47029  -0.46560  -0.46276  -0.46086  -0.45971
 Alpha  occ. eigenvalues --   -0.45646  -0.45523  -0.45339  -0.45309  -0.45029
 Alpha  occ. eigenvalues --   -0.44951  -0.44374  -0.44228  -0.44011  -0.43943
 Alpha  occ. eigenvalues --   -0.43539  -0.43458  -0.43277  -0.42959  -0.42778
 Alpha  occ. eigenvalues --   -0.42567  -0.42222  -0.42062  -0.41927  -0.41684
 Alpha  occ. eigenvalues --   -0.41595  -0.41510  -0.41224  -0.41086  -0.41058
 Alpha  occ. eigenvalues --   -0.40878  -0.40631  -0.40372  -0.40330  -0.40123
 Alpha  occ. eigenvalues --   -0.39873  -0.39473  -0.39462  -0.39267  -0.38949
 Alpha  occ. eigenvalues --   -0.38573  -0.38405  -0.38311  -0.38216  -0.37824
 Alpha  occ. eigenvalues --   -0.37666  -0.37363  -0.37070  -0.36883  -0.36715
 Alpha  occ. eigenvalues --   -0.36490  -0.36010  -0.35857  -0.35731  -0.35682
 Alpha  occ. eigenvalues --   -0.35050  -0.34732  -0.34647  -0.34439  -0.34435
 Alpha  occ. eigenvalues --   -0.34190  -0.33110  -0.32099  -0.30684  -0.29543
 Alpha  occ. eigenvalues --   -0.29389  -0.29186  -0.27851  -0.26672  -0.22899
 Alpha  occ. eigenvalues --   -0.21544
 Alpha virt. eigenvalues --   -0.07210  -0.02468   0.02398   0.04103   0.05945
 Alpha virt. eigenvalues --    0.06243   0.06536   0.06686   0.07130   0.07405
 Alpha virt. eigenvalues --    0.08754   0.10469   0.11442   0.11742   0.12004

 Mulliken charges:
               1
     1  Mg   0.802797
     2  C    0.146735
     3  C   -0.236075
     4  C   -0.176050
     5  C   -0.145770
     6  N   -0.623006
     7  C    0.284824
     8  C   -0.140288
     9  C   -0.139378
    10  C    0.341867
    11  C   -0.304605
    12  C   -0.174126
    13  C   -0.242859
    14  C    0.586442
    15  O   -0.445986
    16  O   -0.505114
    17  N   -0.715327
    18  C    0.363056
    19  C   -0.007505
    20  C    0.031029
    21  C    0.333610
    22  C   -0.383195
    23  C   -0.094704
    24  C   -0.241871
    25  N   -0.672718
    26  C    0.244270
    27  C    0.023028
    28  C    0.009548
    29  C    0.303623
    30  C   -0.374854
    31  C   -0.247865
    32  C   -0.280675
    33  N   -0.760963
    34  C    0.293948
    35  C   -0.034839
    36  C   -0.030580
    37  C    0.268979
    38  C   -0.367792
    39  C    0.375513
    40  O   -0.389183
    41  C   -0.384316
    42  C    0.615399
    43  O   -0.431797
    44  O   -0.457782
    45  C   -0.081254
    46  C    0.011069
    47  C   -0.123485
    48  C    0.081113
    49  C   -0.343321
    50  C   -0.229173
    51  C   -0.177777
    52  C   -0.133494
    53  C   -0.055424
    54  C   -0.311848
    55  C   -0.174649
    56  C   -0.197341
    57  C   -0.186191
    58  C   -0.052403
    59  C   -0.320539
    60  C   -0.162230
    61  C   -0.171814
    62  C   -0.162926
    63  C   -0.042169
    64  C   -0.278406
    65  C   -0.305903
    66  H    0.063447
    67  H    0.083232
    68  H    0.122504
    69  H    0.122533
    70  H    0.108026
    71  H    0.116196
    72  H    0.090099
    73  H    0.128181
    74  H    0.104309
    75  H    0.100931
    76  H    0.146589
    77  H    0.149166
    78  H    0.134864
    79  H    0.125465
    80  H    0.105357
    81  H    0.102176
    82  H    0.102605
    83  H    0.100330
    84  H    0.129373
    85  H    0.113109
    86  H    0.137157
    87  H    0.104076
    88  H    0.100153
    89  H    0.114174
    90  H    0.084909
    91  H    0.094610
    92  H    0.114100
    93  H    0.124168
    94  H    0.120545
    95  H    0.149369
    96  H    0.111256
    97  H    0.125452
    98  H    0.125539
    99  H    0.120200
   100  H    0.121092
   101  H    0.088616
   102  H    0.113239
   103  H    0.128905
   104  H    0.127318
   105  H    0.077263
   106  H    0.106895
   107  H    0.100382
   108  H    0.072133
   109  H    0.059483
   110  H    0.100774
   111  H    0.074460
   112  H    0.097315
   113  H    0.109652
   114  H    0.085408
   115  H    0.093672
   116  H    0.080556
   117  H    0.102749
   118  H    0.100205
   119  H    0.095137
   120  H    0.099248
   121  H    0.092945
   122  H    0.101552
   123  H    0.113729
   124  H    0.086108
   125  H    0.099746
   126  H    0.061380
   127  H    0.078370
   128  H    0.076666
   129  H    0.081873
   130  H    0.089883
   131  H    0.091816
   132  H    0.062499
   133  H    0.092296
   134  H    0.085739
   135  H    0.091480
   136  H    0.088677
   137  H    0.099253
 Sum of Mulliken charges =   0.00000

 Dipole moment (field-independent basis, Debye):
    X=              0.8677    Y=              3.5924    Z=              1.5075  Tot=              3.9914
 Quadrupole moment (field-independent basis, Debye-Ang):
   XX=           -328.5821   YY=           -395.7071   ZZ=           -397.3616
   XY=            -24.9150   XZ=              9.7047   YZ=             -1.6198

 Normal termination of Gaussian 09 at Mon Jul  1 05:51:51 2019.
