 Gaussian 09, Revision D.01,
 Gaussian 09:  ES64L-G09RevD.01 24-Apr-2013

 -------------------------------------
 # td=(NStates=1) CAM-B3LYP/6-31G(d,p)
 -------------------------------------

 --
 TD
 --
 Symbolic Z-matrix:
 Charge =  0 Multiplicity = 1

                         Standard orientation:
 ---------------------------------------------------------------------
 Center     Atomic      Atomic             Coordinates (Angstroms)
 Number     Number       Type             X           Y           Z
 ---------------------------------------------------------------------
      1         12           0       -7.105538    0.512691    0.144965
      2          6           0       -4.802885   -1.877818    0.465781
      3          6           0       -4.777432    2.855493    1.116418
      4          6           0       -9.395112    2.998091   -0.251416
      5          6           0       -9.477514   -1.783540   -0.934781
      6          7           0       -5.079079    0.439371    0.692957
      7          6           0       -4.274089   -0.628630    0.790707
      8          6           0       -2.964251   -0.375230    1.239866
      9          6           0       -3.004150    1.103147    1.719962
     10          6           0       -4.422254    1.555666    1.167946
     11          6           0       -2.865318    1.197882    3.274026
     12          6           0       -2.024070   -0.540527    0.049760
     13          6           0       -0.474366   -0.422285    0.371675
     14          6           0        0.436802   -0.595766   -0.812269
     15          8           0        0.145205   -1.084975   -1.955406
     16          8           0        1.677595   -0.319264   -0.359814
     17          7           0       -7.073381    2.638433    0.251347
     18          6           0       -6.035047    3.398995    0.644616
     19          6           0       -6.430302    4.736026    0.739688
     20          6           0       -7.717081    4.811465    0.502769
     21          6           0       -8.178931    3.456846    0.050932
     22          6           0       -5.604230    5.928922    1.360389
     23          6           0       -8.640140    5.998734    0.401342
     24          6           0       -8.305540    7.250065    0.182888
     25          7           0       -9.099627    0.653775   -0.517697
     26          6           0       -9.856994    1.759968   -0.570707
     27          6           0      -11.183136    1.409932   -1.051991
     28          6           0      -11.168392    0.083513   -1.259560
     29          6           0       -9.851153   -0.438689   -0.958395
     30          6           0      -12.438129    2.368246   -1.166418
     31          6           0      -12.271972   -0.848638   -1.753333
     32          6           0      -12.301649   -1.058659   -3.197690
     33          7           0       -7.228154   -1.423064   -0.211772
     34          6           0       -8.155183   -2.294444   -0.579722
     35          6           0       -7.692950   -3.614908   -0.489328
     36          6           0       -6.445256   -3.601397   -0.076190
     37          6           0       -6.193926   -2.155450   -0.007580
     38          6           0       -8.496884   -4.904915   -0.753005
     39          6           0       -5.258857   -4.314467    0.221821
     40          8           0       -5.165077   -5.558093    0.205937
     41          6           0       -4.102634   -3.295035    0.642831
     42          6           0       -3.493944   -3.645179    2.011383
     43          8           0       -3.857558   -3.078341    3.001002
     44          8           0       -2.629207   -4.615154    1.833852
     45          6           0       -2.085667   -5.189306    2.988052
     46          6           0        2.773509   -0.610260   -1.252588
     47          6           0        4.080090   -0.392640   -0.648569
     48          6           0        5.078280    0.403030   -0.978431
     49          6           0        5.041417    1.251258   -2.255309
     50          6           0        6.431360    0.470600   -0.182207
     51          6           0        7.525342   -0.274500   -0.982071
     52          6           0        8.828183   -0.086052   -0.060838
     53          6           0       10.112907   -0.451528   -0.828891
     54          6           0       10.024733   -1.863534   -1.421087
     55          6           0       11.474827   -0.267470    0.016988
     56          6           0       12.705888   -0.414596   -0.766586
     57          6           0       13.943009   -0.232698    0.167806
     58          6           0       15.310208   -0.263878   -0.462875
     59          6           0       15.697771   -1.714200   -0.775146
     60          6           0       16.445025    0.339460    0.505179
     61          6           0       17.826054    0.515512   -0.106376
     62          6           0       18.781500    1.253868    0.791929
     63          6           0       20.193341    1.330616    0.230750
     64          6           0       20.318331    2.044829   -1.109294
     65          6           0       21.150366    2.001541    1.282425
     66          1           0       -3.977091    3.590333    1.360817
     67          1           0      -10.209701    3.880656   -0.476471
     68          1           0      -10.112376   -2.604479   -1.187115
     69          1           0       -2.735459   -1.050617    2.067172
     70          1           0       -2.391436    1.684142    1.114258
     71          1           0       -1.713572    1.128532    3.529920
     72          1           0       -3.246424    2.156319    3.746675
     73          1           0       -3.508728    0.505133    4.044358
     74          1           0       -2.283060   -1.525109   -0.377242
     75          1           0       -2.051477    0.146548   -0.843261
     76          1           0       -0.014500    0.567219    0.825756
     77          1           0       -0.125156   -1.028182    1.176933
     78          1           0       -5.031166    6.463941    0.418392
     79          1           0       -6.312751    6.659223    1.654451
     80          1           0       -4.946312    5.375914    2.178610
     81          1           0       -9.540586    5.846129    0.635764
     82          1           0       -9.050004    7.907927    0.057360
     83          1           0       -7.331281    7.830496   -0.024645
     84          1           0      -12.313621    3.050713   -2.120275
     85          1           0      -13.330750    1.527234   -1.233051
     86          1           0      -12.724241    3.013376   -0.172599
     87          1           0      -12.128972   -1.753365   -1.255412
     88          1           0      -13.386872   -0.387712   -1.394371
     89          1           0      -13.223414   -1.619972   -3.544064
     90          1           0      -12.543956   -0.241661   -3.870389
     91          1           0      -11.364852   -1.615680   -3.613467
     92          1           0       -9.330801   -4.910678   -1.775494
     93          1           0       -7.898442   -5.819385   -0.758912
     94          1           0       -9.293818   -5.139970    0.106440
     95          1           0       -3.406613   -3.411462   -0.169255
     96          1           0       -1.592532   -4.373438    3.544950
     97          1           0       -2.718587   -5.768965    3.553739
     98          1           0       -1.381034   -5.916174    2.593419
     99          1           0        2.685424   -1.540287   -1.620322
    100          1           0        2.758518    0.172198   -2.071762
    101          1           0        4.099256   -0.934119    0.315588
    102          1           0        3.965020    1.329832   -2.652930
    103          1           0        5.597570    2.123001   -1.983877
    104          1           0        5.606892    0.722630   -2.996579
    105          1           0        6.560380    1.439761    0.215486
    106          1           0        6.301507   -0.187055    0.611563
    107          1           0        7.390864   -1.409675   -1.081553
    108          1           0        7.700685    0.247769   -2.046997
    109          1           0        8.792379    0.861388    0.347630
    110          1           0        8.988304   -0.882586    0.858813
    111          1           0       10.282314    0.353792   -1.663228
    112          1           0        9.274759   -1.780310   -2.324496
    113          1           0       11.011695   -2.166606   -1.971514
    114          1           0        9.808790   -2.631446   -0.589936
    115          1           0       11.594744    0.796154    0.345072
    116          1           0       11.415876   -1.181790    0.738872
    117          1           0       12.768978   -1.442506   -1.069004
    118          1           0       12.537784    0.264810   -1.546906
    119          1           0       13.909498    0.916494    0.490807
    120          1           0       13.839787   -0.694979    1.045687
    121          1           0       15.127453    0.348466   -1.330764
    122          1           0       16.032588   -2.293295    0.056461
    123          1           0       14.930423   -2.155121   -1.361692
    124          1           0       16.612264   -2.013532   -1.385769
    125          1           0       16.145227    1.387466    1.084653
    126          1           0       16.718062   -0.171694    1.618467
    127          1           0       18.115324   -0.519148   -0.421862
    128          1           0       17.812740    0.957899   -1.163762
    129          1           0       18.598674    2.363227    0.878047
    130          1           0       18.818016    0.828469    1.958983
    131          1           0       20.585675    0.253673   -0.052501
    132          1           0       19.819125    3.115510   -1.153500
    133          1           0       21.405409    1.926008   -1.221981
    134          1           0       19.810936    1.474419   -2.007195
    135          1           0       21.166734    1.483782    2.231341
    136          1           0       22.203124    2.119446    0.848635
    137          1           0       20.950248    3.080864    1.759374
 ---------------------------------------------------------------------

 SCF Done:  E(RCAM-B3LYP) =  -2932.64795766     A.U. after   17 cycles

 Excitation energies and oscillator strengths:

 Excited State   1:      Singlet-A      2.1099 eV  587.64 nm  f=0.3191  <S**2>=0.000
     240 -> 242       -0.17559
     240 -> 243        0.21157
     241 -> 242        0.63826
 This state for optimization and/or second-order correction.
 Total Energy, E(TD-HF/TD-KS) =  -2932.57042192
 Copying the excited state density for this state as the 1-particle RhoCI density.

 The electronic state is 1-A.
 Alpha  occ. eigenvalues --  -46.84853 -19.27513 -19.26833 -19.21218 -19.20767
 Alpha  occ. eigenvalues --  -19.19585 -14.40984 -14.39475 -14.39250 -14.39211
 Alpha  occ. eigenvalues --  -10.39791 -10.39525 -10.34695 -10.30989 -10.30866
 Alpha  occ. eigenvalues --  -10.30417 -10.29838 -10.29440 -10.29308 -10.29064
 Alpha  occ. eigenvalues --  -10.28926 -10.28657 -10.28421 -10.28359 -10.28312
 Alpha  occ. eigenvalues --  -10.28277 -10.28263 -10.28184 -10.28039 -10.28021
 Alpha  occ. eigenvalues --  -10.27974 -10.27687 -10.27676 -10.27550 -10.27506
 Alpha  occ. eigenvalues --  -10.27468 -10.27290 -10.27100 -10.27060 -10.27013
 Alpha  occ. eigenvalues --  -10.27012 -10.26839 -10.26631 -10.26600 -10.26579
 Alpha  occ. eigenvalues --  -10.26516 -10.26425 -10.26135 -10.26052 -10.26033
 Alpha  occ. eigenvalues --  -10.26024 -10.26018 -10.25890 -10.25889 -10.25789
 Alpha  occ. eigenvalues --  -10.25733 -10.25667 -10.25596 -10.25526 -10.25403
 Alpha  occ. eigenvalues --  -10.25086 -10.24728 -10.24184 -10.24177 -10.24130
 Alpha  occ. eigenvalues --   -3.13816  -1.88527  -1.88054  -1.87990  -1.20561
 Alpha  occ. eigenvalues --   -1.17547  -1.11300  -1.08889  -1.07354  -1.06610
 Alpha  occ. eigenvalues --   -1.04420  -1.03770  -1.02721  -0.91487  -0.91091
 Alpha  occ. eigenvalues --   -0.90763  -0.89874  -0.89428  -0.89405  -0.89302
 Alpha  occ. eigenvalues --   -0.88245  -0.88190  -0.87549  -0.86710  -0.86524
 Alpha  occ. eigenvalues --   -0.85227  -0.84781  -0.83898  -0.83145  -0.82766
 Alpha  occ. eigenvalues --   -0.81982  -0.81711  -0.80856  -0.80046  -0.77688
 Alpha  occ. eigenvalues --   -0.76902  -0.76604  -0.75895  -0.75344  -0.75181
 Alpha  occ. eigenvalues --   -0.74812  -0.74101  -0.73667  -0.73437  -0.72614
 Alpha  occ. eigenvalues --   -0.71136  -0.70690  -0.69540  -0.69004  -0.68884
 Alpha  occ. eigenvalues --   -0.68181  -0.66575  -0.66361  -0.65230  -0.64599
 Alpha  occ. eigenvalues --   -0.64542  -0.63822  -0.63435  -0.62582  -0.61286
 Alpha  occ. eigenvalues --   -0.60943  -0.60770  -0.59986  -0.59767  -0.59487
 Alpha  occ. eigenvalues --   -0.58516  -0.58469  -0.58053  -0.57621  -0.57427
 Alpha  occ. eigenvalues --   -0.56545  -0.56287  -0.56057  -0.55535  -0.55219
 Alpha  occ. eigenvalues --   -0.54751  -0.54361  -0.53812  -0.53336  -0.52850
 Alpha  occ. eigenvalues --   -0.52756  -0.52605  -0.52342  -0.52031  -0.51703
 Alpha  occ. eigenvalues --   -0.51639  -0.51055  -0.51013  -0.50795  -0.50246
 Alpha  occ. eigenvalues --   -0.49999  -0.49753  -0.49598  -0.49473  -0.49404
 Alpha  occ. eigenvalues --   -0.49082  -0.48809  -0.48768  -0.48508  -0.48202
 Alpha  occ. eigenvalues --   -0.48032  -0.47575  -0.47468  -0.47067  -0.46869
 Alpha  occ. eigenvalues --   -0.46710  -0.46593  -0.46497  -0.46019  -0.45761
 Alpha  occ. eigenvalues --   -0.45637  -0.45601  -0.45208  -0.44948  -0.44841
 Alpha  occ. eigenvalues --   -0.44587  -0.44267  -0.44080  -0.43825  -0.43819
 Alpha  occ. eigenvalues --   -0.43628  -0.43451  -0.43414  -0.43238  -0.43037
 Alpha  occ. eigenvalues --   -0.42913  -0.42558  -0.42422  -0.42324  -0.41859
 Alpha  occ. eigenvalues --   -0.41846  -0.41712  -0.41599  -0.41580  -0.41359
 Alpha  occ. eigenvalues --   -0.40899  -0.40704  -0.40546  -0.40441  -0.40169
 Alpha  occ. eigenvalues --   -0.39769  -0.39652  -0.39417  -0.39117  -0.38501
 Alpha  occ. eigenvalues --   -0.38424  -0.38160  -0.37923  -0.37745  -0.37615
 Alpha  occ. eigenvalues --   -0.37394  -0.37126  -0.37038  -0.36863  -0.36625
 Alpha  occ. eigenvalues --   -0.36576  -0.35963  -0.35906  -0.35576  -0.35368
 Alpha  occ. eigenvalues --   -0.35106  -0.34844  -0.34234  -0.34004  -0.33461
 Alpha  occ. eigenvalues --   -0.33342  -0.33087  -0.31756  -0.31257  -0.30704
 Alpha  occ. eigenvalues --   -0.30415  -0.29616  -0.28717  -0.28465  -0.23035
 Alpha  occ. eigenvalues --   -0.21040
 Alpha virt. eigenvalues --   -0.06337  -0.02189   0.01988   0.04782   0.05005
 Alpha virt. eigenvalues --    0.05348   0.06745   0.06965   0.07318   0.07845
 Alpha virt. eigenvalues --    0.08899   0.10652   0.11091   0.11325   0.11389

 Mulliken charges:
               1
     1  Mg   0.828762
     2  C   -0.012327
     3  C   -0.222168
     4  C   -0.193459
     5  C   -0.162030
     6  N   -0.652160
     7  C    0.358012
     8  C   -0.166083
     9  C   -0.121410
    10  C    0.316241
    11  C   -0.314886
    12  C   -0.184373
    13  C   -0.279903
    14  C    0.618852
    15  O   -0.509543
    16  O   -0.478053
    17  N   -0.699394
    18  C    0.344338
    19  C   -0.028235
    20  C    0.021795
    21  C    0.295275
    22  C   -0.341073
    23  C   -0.048737
    24  C   -0.234757
    25  N   -0.696271
    26  C    0.323858
    27  C    0.005613
    28  C    0.033955
    29  C    0.290227
    30  C   -0.345000
    31  C   -0.214220
    32  C   -0.299095
    33  N   -0.703171
    34  C    0.235284
    35  C    0.003169
    36  C    0.111989
    37  C    0.272021
    38  C   -0.368709
    39  C    0.326159
    40  O   -0.485935
    41  C   -0.296678
    42  C    0.622975
    43  O   -0.466874
    44  O   -0.416340
    45  C   -0.093579
    46  C    0.047310
    47  C   -0.147180
    48  C    0.089332
    49  C   -0.359460
    50  C   -0.232725
    51  C   -0.182106
    52  C   -0.150997
    53  C   -0.066252
    54  C   -0.309352
    55  C   -0.170100
    56  C   -0.173568
    57  C   -0.172799
    58  C   -0.044200
    59  C   -0.323479
    60  C   -0.170770
    61  C   -0.161301
    62  C   -0.145848
    63  C   -0.054156
    64  C   -0.287646
    65  C   -0.314647
    66  H    0.088156
    67  H    0.082515
    68  H    0.096701
    69  H    0.136727
    70  H    0.120497
    71  H    0.097551
    72  H    0.106546
    73  H    0.116969
    74  H    0.127616
    75  H    0.125347
    76  H    0.122696
    77  H    0.145836
    78  H    0.098463
    79  H    0.132948
    80  H    0.110501
    81  H    0.086979
    82  H    0.100404
    83  H    0.103022
    84  H    0.118430
    85  H    0.094407
    86  H    0.104806
    87  H    0.116440
    88  H    0.068972
    89  H    0.093109
    90  H    0.114635
    91  H    0.100858
    92  H    0.073409
    93  H    0.153880
    94  H    0.108922
    95  H    0.160616
    96  H    0.123310
    97  H    0.142678
    98  H    0.127410
    99  H    0.139378
   100  H    0.092113
   101  H    0.075520
   102  H    0.110089
   103  H    0.116021
   104  H    0.132868
   105  H    0.116124
   106  H    0.121576
   107  H    0.119292
   108  H    0.085122
   109  H    0.103077
   110  H    0.065338
   111  H    0.056817
   112  H    0.101757
   113  H    0.097816
   114  H    0.099684
   115  H    0.088634
   116  H    0.070845
   117  H    0.098194
   118  H    0.095060
   119  H    0.061924
   120  H    0.104080
   121  H    0.097548
   122  H    0.114695
   123  H    0.103837
   124  H    0.084956
   125  H    0.058251
   126  H    0.062260
   127  H    0.094071
   128  H    0.087529
   129  H    0.094881
   130  H    0.061543
   131  H    0.075728
   132  H    0.090809
   133  H    0.106497
   134  H    0.086640
   135  H    0.109206
   136  H    0.091742
   137  H    0.082999
 Sum of Mulliken charges =   0.00000

 Dipole moment (field-independent basis, Debye):
    X=              2.8506    Y=              4.1744    Z=              1.6126  Tot=              5.3058
 Quadrupole moment (field-independent basis, Debye-Ang):
   XX=           -354.3471   YY=           -390.7265   ZZ=           -399.2273
   XY=            -29.7552   XZ=              1.1682   YZ=             -5.7805

 Normal termination of Gaussian 09 at Sun Jun 30 22:03:21 2019.
