 Gaussian 09, Revision D.01,
 Gaussian 09:  ES64L-G09RevD.01 24-Apr-2013

 -------------------------------------
 # td=(NStates=1) CAM-B3LYP/6-31G(d,p)
 -------------------------------------

 --
 TD
 --
 Symbolic Z-matrix:
 Charge =  0 Multiplicity = 1

                         Standard orientation:
 ---------------------------------------------------------------------
 Center     Atomic      Atomic             Coordinates (Angstroms)
 Number     Number       Type             X           Y           Z
 ---------------------------------------------------------------------
      1         12           0       -7.180154    0.608327    0.016097
      2          6           0       -4.809779   -1.894001    0.353259
      3          6           0       -4.838321    2.775378    1.191997
      4          6           0       -9.468804    3.041933   -0.335165
      5          6           0       -9.540994   -1.637222   -0.838302
      6          7           0       -5.119649    0.479462    0.585753
      7          6           0       -4.321136   -0.731094    0.696556
      8          6           0       -2.864721   -0.417760    1.197592
      9          6           0       -3.138497    1.094647    1.610672
     10          6           0       -4.476791    1.470504    1.154544
     11          6           0       -2.835184    1.465688    3.146692
     12          6           0       -1.895609   -0.571199    0.026141
     13          6           0       -0.384992   -0.425834    0.486892
     14          6           0        0.610752   -0.778323   -0.576561
     15          8           0        0.282468   -0.991357   -1.781240
     16          8           0        1.852991   -0.640355   -0.090256
     17          7           0       -7.092579    2.615577    0.277265
     18          6           0       -6.124110    3.293528    0.828679
     19          6           0       -6.476305    4.689059    0.812838
     20          6           0       -7.769663    4.840554    0.517585
     21          6           0       -8.198280    3.495648   -0.020139
     22          6           0       -5.561823    5.832771    1.296029
     23          6           0       -8.716834    6.029882    0.473776
     24          6           0       -8.339887    7.321581    0.044013
     25          7           0       -9.085365    0.650992   -0.561593
     26          6           0       -9.920663    1.788252   -0.670139
     27          6           0      -11.240427    1.405146   -1.016825
     28          6           0      -11.214631    0.029220   -1.124640
     29          6           0       -9.863998   -0.457754   -0.780015
     30          6           0      -12.368966    2.324500   -1.195920
     31          6           0      -12.297375   -0.749685   -1.628925
     32          6           0      -12.438032   -0.994389   -3.124707
     33          7           0       -7.144050   -1.381700   -0.193987
     34          6           0       -8.245712   -2.226452   -0.498844
     35          6           0       -7.865077   -3.623267   -0.530546
     36          6           0       -6.523076   -3.594406   -0.105802
     37          6           0       -6.159217   -2.184624   -0.003784
     38          6           0       -8.687725   -4.872423   -0.891717
     39          6           0       -5.304366   -4.422779    0.219905
     40          8           0       -5.257607   -5.584539    0.166176
     41          6           0       -4.101112   -3.328738    0.507429
     42          6           0       -3.593116   -3.695912    1.867566
     43          8           0       -3.841144   -3.152869    2.913827
     44          8           0       -2.704286   -4.741384    1.816800
     45          6           0       -2.028204   -5.084812    3.023212
     46          6           0        2.755983   -0.731070   -1.106076
     47          6           0        4.222463   -0.511020   -0.487484
     48          6           0        5.110124    0.378459   -0.956024
     49          6           0        5.060367    1.393676   -2.180625
     50          6           0        6.457937    0.472526   -0.306895
     51          6           0        7.712692    0.043246   -1.092013
     52          6           0        8.920565   -0.139405   -0.215424
     53          6           0       10.210097   -0.514597   -0.964436
     54          6           0       10.153490   -1.955771   -1.453849
     55          6           0       11.405522   -0.292008    0.035108
     56          6           0       12.680215   -0.568449   -0.596230
     57          6           0       13.898035   -0.065297    0.183909
     58          6           0       15.254478   -0.233209   -0.458636
     59          6           0       15.644863   -1.681834   -0.936458
     60          6           0       16.395191    0.412220    0.416034
     61          6           0       17.879602    0.575934   -0.205944
     62          6           0       18.842090    1.251604    0.754749
     63          6           0       20.289814    1.348273    0.218334
     64          6           0       20.412124    2.204588   -1.019805
     65          6           0       21.239514    1.750665    1.447407
     66          1           0       -4.193858    3.482672    1.399432
     67          1           0      -10.300527    3.607895   -0.124434
     68          1           0      -10.069992   -2.440059   -1.434380
     69          1           0       -2.503816   -1.078694    2.186569
     70          1           0       -2.506587    1.597737    1.124134
     71          1           0       -1.910733    1.130329    3.428526
     72          1           0       -3.303984    2.439783    3.297725
     73          1           0       -3.461893    0.646094    3.790296
     74          1           0       -1.908550   -1.608052   -0.424636
     75          1           0       -2.166319    0.030461   -0.743109
     76          1           0       -0.084920    0.683405    0.752779
     77          1           0       -0.153257   -1.225672    1.219394
     78          1           0       -4.829798    6.276658    0.513200
     79          1           0       -6.112291    6.673934    1.749141
     80          1           0       -4.758003    5.541691    1.924239
     81          1           0       -9.634151    5.526539    1.048394
     82          1           0       -9.033154    8.104650    0.045294
     83          1           0       -7.292107    7.635315   -0.198180
     84          1           0      -12.232222    3.120651   -2.036356
     85          1           0      -13.446687    1.889160   -1.456294
     86          1           0      -12.628173    2.845164   -0.218571
     87          1           0      -12.216904   -1.750957   -1.079943
     88          1           0      -13.204520   -0.357937   -1.211876
     89          1           0      -13.125147   -1.692519   -3.471485
     90          1           0      -12.360036    0.134725   -3.659283
     91          1           0      -11.548126   -1.419968   -3.417222
     92          1           0       -8.921334   -4.994829   -1.857380
     93          1           0       -7.953893   -5.602832   -0.800267
     94          1           0       -9.537107   -5.093461   -0.228941
     95          1           0       -3.514779   -3.501444   -0.261481
     96          1           0       -1.465861   -4.264883    3.586158
     97          1           0       -2.940421   -5.471820    3.528335
     98          1           0       -1.266744   -5.854318    2.928934
     99          1           0        2.834740   -1.772683   -1.475152
    100          1           0        2.553187   -0.166046   -2.020379
    101          1           0        4.299892   -1.192816    0.329707
    102          1           0        4.139800    1.750879   -2.733844
    103          1           0        5.388225    2.476255   -1.865095
    104          1           0        5.670732    1.057944   -2.860801
    105          1           0        6.425453    1.519004    0.211654
    106          1           0        6.449632   -0.066077    0.755044
    107          1           0        7.269161   -0.725296   -1.576428
    108          1           0        7.710070    0.768137   -2.039465
    109          1           0        9.036639    0.873236    0.178123
    110          1           0        8.835241   -0.795805    0.682758
    111          1           0       10.329709    0.273746   -1.806625
    112          1           0        9.187860   -2.191869   -1.998192
    113          1           0       11.090545   -2.153614   -1.865591
    114          1           0       10.222703   -2.676545   -0.683588
    115          1           0       11.269037    0.637331    0.458931
    116          1           0       11.222936   -0.974132    0.796263
    117          1           0       12.915574   -1.630718   -0.812866
    118          1           0       12.845837   -0.001609   -1.704962
    119          1           0       13.475525    1.235617    0.253848
    120          1           0       13.768358   -0.487052    1.238540
    121          1           0       15.157934    0.384410   -1.479142
    122          1           0       15.414115   -2.432098   -0.197081
    123          1           0       15.106017   -2.019943   -1.901531
    124          1           0       16.705560   -1.611924   -1.184438
    125          1           0       16.259189    1.315528    0.783139
    126          1           0       16.491356   -0.318973    1.267266
    127          1           0       18.275441   -0.353227   -0.394106
    128          1           0       17.734008    0.916697   -1.129166
    129          1           0       18.563182    2.269451    0.838830
    130          1           0       18.956914    0.892519    1.829891
    131          1           0       20.530839    0.360418    0.013916
    132          1           0       20.129431    3.215979   -0.746704
    133          1           0       21.531121    2.073777   -1.234699
    134          1           0       19.806722    1.754040   -1.877831
    135          1           0       21.079206    1.058659    2.390005
    136          1           0       22.410442    1.971692    1.241126
    137          1           0       20.832572    2.712584    2.138342
 ---------------------------------------------------------------------

 SCF Done:  E(RCAM-B3LYP) =  -2932.58617815     A.U. after   17 cycles

 Excitation energies and oscillator strengths:

 Excited State   1:      Singlet-A      2.1500 eV  576.68 nm  f=0.2883  <S**2>=0.000
     240 -> 242       -0.19089
     240 -> 243        0.18065
     241 -> 242        0.64406
 This state for optimization and/or second-order correction.
 Total Energy, E(TD-HF/TD-KS) =  -2932.50716821
 Copying the excited state density for this state as the 1-particle RhoCI density.

 The electronic state is 1-A.
 Alpha  occ. eigenvalues --  -46.83037 -19.28066 -19.24894 -19.21008 -19.20725
 Alpha  occ. eigenvalues --  -19.20177 -14.40630 -14.39376 -14.39242 -14.38827
 Alpha  occ. eigenvalues --  -10.39594 -10.38787 -10.35021 -10.31227 -10.31006
 Alpha  occ. eigenvalues --  -10.30943 -10.30526 -10.30074 -10.29724 -10.29686
 Alpha  occ. eigenvalues --  -10.29424 -10.28696 -10.28625 -10.28313 -10.28213
 Alpha  occ. eigenvalues --  -10.28136 -10.28116 -10.28040 -10.27691 -10.27672
 Alpha  occ. eigenvalues --  -10.27663 -10.27654 -10.27574 -10.27531 -10.27146
 Alpha  occ. eigenvalues --  -10.27066 -10.26634 -10.26600 -10.26551 -10.26395
 Alpha  occ. eigenvalues --  -10.26386 -10.26379 -10.26318 -10.26294 -10.26289
 Alpha  occ. eigenvalues --  -10.26188 -10.26150 -10.26121 -10.26080 -10.25769
 Alpha  occ. eigenvalues --  -10.25767 -10.25751 -10.25668 -10.25545 -10.25395
 Alpha  occ. eigenvalues --  -10.25369 -10.25323 -10.24725 -10.24508 -10.24252
 Alpha  occ. eigenvalues --  -10.24151 -10.23702 -10.23659 -10.23659 -10.23604
 Alpha  occ. eigenvalues --   -3.12317  -1.87018  -1.86543  -1.86521  -1.20671
 Alpha  occ. eigenvalues --   -1.17200  -1.13990  -1.08417  -1.07940  -1.04341
 Alpha  occ. eigenvalues --   -1.03608  -1.02856  -1.02053  -0.91500  -0.91323
 Alpha  occ. eigenvalues --   -0.90086  -0.89987  -0.89601  -0.89516  -0.89109
 Alpha  occ. eigenvalues --   -0.88587  -0.87814  -0.87496  -0.86677  -0.86020
 Alpha  occ. eigenvalues --   -0.85003  -0.84321  -0.83678  -0.82666  -0.82623
 Alpha  occ. eigenvalues --   -0.81491  -0.81355  -0.80439  -0.79896  -0.78263
 Alpha  occ. eigenvalues --   -0.77732  -0.77246  -0.76475  -0.76086  -0.75673
 Alpha  occ. eigenvalues --   -0.75329  -0.75168  -0.74222  -0.73747  -0.73242
 Alpha  occ. eigenvalues --   -0.72059  -0.71114  -0.69842  -0.69167  -0.68747
 Alpha  occ. eigenvalues --   -0.67380  -0.67042  -0.65388  -0.65226  -0.64766
 Alpha  occ. eigenvalues --   -0.64095  -0.63832  -0.63296  -0.63129  -0.62069
 Alpha  occ. eigenvalues --   -0.61121  -0.60595  -0.60284  -0.59600  -0.59232
 Alpha  occ. eigenvalues --   -0.58299  -0.58039  -0.57835  -0.57640  -0.57027
 Alpha  occ. eigenvalues --   -0.55795  -0.55540  -0.55171  -0.55090  -0.54673
 Alpha  occ. eigenvalues --   -0.54239  -0.54113  -0.53733  -0.53404  -0.52937
 Alpha  occ. eigenvalues --   -0.52820  -0.52800  -0.52685  -0.52191  -0.51844
 Alpha  occ. eigenvalues --   -0.51586  -0.51197  -0.51115  -0.50840  -0.50599
 Alpha  occ. eigenvalues --   -0.50202  -0.50126  -0.49893  -0.49623  -0.49487
 Alpha  occ. eigenvalues --   -0.49338  -0.49300  -0.49087  -0.48924  -0.48755
 Alpha  occ. eigenvalues --   -0.48531  -0.48359  -0.48073  -0.47679  -0.47426
 Alpha  occ. eigenvalues --   -0.47268  -0.47055  -0.46777  -0.46462  -0.46355
 Alpha  occ. eigenvalues --   -0.45774  -0.45560  -0.45476  -0.45148  -0.45006
 Alpha  occ. eigenvalues --   -0.44907  -0.44740  -0.44485  -0.44204  -0.44174
 Alpha  occ. eigenvalues --   -0.43966  -0.43903  -0.43754  -0.43588  -0.43477
 Alpha  occ. eigenvalues --   -0.43226  -0.42850  -0.42626  -0.42359  -0.42217
 Alpha  occ. eigenvalues --   -0.42031  -0.41706  -0.41515  -0.41113  -0.41045
 Alpha  occ. eigenvalues --   -0.40971  -0.40901  -0.40554  -0.40213  -0.40126
 Alpha  occ. eigenvalues --   -0.39876  -0.39731  -0.39531  -0.39250  -0.38832
 Alpha  occ. eigenvalues --   -0.38521  -0.38503  -0.38333  -0.38081  -0.37453
 Alpha  occ. eigenvalues --   -0.37432  -0.37089  -0.36783  -0.36488  -0.36335
 Alpha  occ. eigenvalues --   -0.36191  -0.35990  -0.35595  -0.35287  -0.35044
 Alpha  occ. eigenvalues --   -0.34557  -0.34382  -0.34291  -0.33669  -0.33328
 Alpha  occ. eigenvalues --   -0.33286  -0.32958  -0.31906  -0.31383  -0.30106
 Alpha  occ. eigenvalues --   -0.29432  -0.29070  -0.28743  -0.28054  -0.23350
 Alpha  occ. eigenvalues --   -0.21547
 Alpha virt. eigenvalues --   -0.06672  -0.01748   0.02607   0.03331   0.05192
 Alpha virt. eigenvalues --    0.06466   0.06671   0.06966   0.07115   0.07627
 Alpha virt. eigenvalues --    0.08478   0.10281   0.10464   0.11134   0.11618

 Mulliken charges:
               1
     1  Mg   0.809390
     2  C    0.040895
     3  C   -0.184697
     4  C   -0.166200
     5  C   -0.192183
     6  N   -0.646578
     7  C    0.244420
     8  C   -0.148349
     9  C   -0.146078
    10  C    0.421734
    11  C   -0.315763
    12  C   -0.162355
    13  C   -0.260761
    14  C    0.598820
    15  O   -0.498325
    16  O   -0.424303
    17  N   -0.694735
    18  C    0.354301
    19  C    0.011335
    20  C   -0.015316
    21  C    0.261480
    22  C   -0.386972
    23  C   -0.072223
    24  C   -0.251220
    25  N   -0.727570
    26  C    0.272614
    27  C    0.080350
    28  C    0.013910
    29  C    0.406712
    30  C   -0.399283
    31  C   -0.261233
    32  C   -0.293835
    33  N   -0.693325
    34  C    0.171482
    35  C   -0.002740
    36  C   -0.029636
    37  C    0.305689
    38  C   -0.373612
    39  C    0.341305
    40  O   -0.406902
    41  C   -0.280715
    42  C    0.623229
    43  O   -0.470207
    44  O   -0.472270
    45  C   -0.075724
    46  C   -0.007063
    47  C   -0.153256
    48  C    0.101077
    49  C   -0.360979
    50  C   -0.227403
    51  C   -0.171478
    52  C   -0.172565
    53  C   -0.066631
    54  C   -0.316415
    55  C   -0.161464
    56  C   -0.164789
    57  C   -0.140999
    58  C   -0.055934
    59  C   -0.322972
    60  C   -0.171157
    61  C   -0.202247
    62  C   -0.180986
    63  C   -0.051543
    64  C   -0.297347
    65  C   -0.314228
    66  H    0.057837
    67  H    0.082672
    68  H    0.113333
    69  H    0.104481
    70  H    0.113682
    71  H    0.124494
    72  H    0.118458
    73  H    0.095799
    74  H    0.117898
    75  H    0.128220
    76  H    0.130367
    77  H    0.134690
    78  H    0.104262
    79  H    0.124974
    80  H    0.119389
    81  H    0.116690
    82  H    0.116934
    83  H    0.124704
    84  H    0.120924
    85  H    0.109362
    86  H    0.118029
    87  H    0.089782
    88  H    0.107194
    89  H    0.119387
    90  H    0.080827
    91  H    0.120308
    92  H    0.129783
    93  H    0.149250
    94  H    0.124127
    95  H    0.159057
    96  H    0.110571
    97  H    0.132854
    98  H    0.123689
    99  H    0.113205
   100  H    0.128874
   101  H    0.103546
   102  H    0.110005
   103  H    0.103129
   104  H    0.139846
   105  H    0.084781
   106  H    0.075418
   107  H    0.114598
   108  H    0.080529
   109  H    0.097382
   110  H    0.094327
   111  H    0.075853
   112  H    0.102710
   113  H    0.112805
   114  H    0.101059
   115  H    0.098492
   116  H    0.098224
   117  H    0.094554
   118  H    0.054707
   119  H    0.024622
   120  H    0.080877
   121  H    0.066548
   122  H    0.109472
   123  H    0.097872
   124  H    0.111820
   125  H    0.107523
   126  H    0.081645
   127  H    0.097826
   128  H    0.105850
   129  H    0.094141
   130  H    0.086221
   131  H    0.101133
   132  H    0.111668
   133  H    0.096413
   134  H    0.101155
   135  H    0.095034
   136  H    0.091213
   137  H    0.064717
 Sum of Mulliken charges =   0.00000

 Dipole moment (field-independent basis, Debye):
    X=              0.7842    Y=              4.9075    Z=              0.3612  Tot=              4.9829
 Quadrupole moment (field-independent basis, Debye-Ang):
   XX=           -329.3952   YY=           -388.9157   ZZ=           -400.2650
   XY=            -38.0728   XZ=             10.6374   YZ=              1.3139

 Normal termination of Gaussian 09 at Thu Jun 27 15:03:51 2019.
