 Gaussian 09, Revision D.01,
 Gaussian 09:  ES64L-G09RevD.01 24-Apr-2013

 -------------------------------------
 # td=(NStates=1) CAM-B3LYP/6-31G(d,p)
 -------------------------------------

 --
 TD
 --
 Symbolic Z-matrix:
 Charge =  0 Multiplicity = 1

                         Standard orientation:
 ---------------------------------------------------------------------
 Center     Atomic      Atomic             Coordinates (Angstroms)
 Number     Number       Type             X           Y           Z
 ---------------------------------------------------------------------
      1         12           0       -7.179703    0.560641    0.221124
      2          6           0       -4.912287   -1.953696    0.584233
      3          6           0       -4.819195    2.820167    1.207330
      4          6           0       -9.444850    3.026397   -0.301858
      5          6           0       -9.674223   -1.771142   -0.870826
      6          7           0       -5.180428    0.462297    0.622622
      7          6           0       -4.369242   -0.699339    0.825082
      8          6           0       -2.914102   -0.363617    1.259220
      9          6           0       -3.027869    1.146803    1.650840
     10          6           0       -4.388931    1.524705    1.137499
     11          6           0       -2.990189    1.419070    3.169041
     12          6           0       -1.833723   -0.550881    0.151018
     13          6           0       -0.447923   -0.421550    0.639247
     14          6           0        0.487347   -0.636969   -0.521966
     15          8           0        0.191644   -0.955542   -1.604831
     16          8           0        1.800947   -0.353962   -0.223535
     17          7           0       -7.160866    2.633038    0.382325
     18          6           0       -6.071746    3.409947    0.875738
     19          6           0       -6.467731    4.748389    0.804611
     20          6           0       -7.762513    4.842533    0.417415
     21          6           0       -8.263738    3.520556    0.150740
     22          6           0       -5.635944    5.840941    1.344394
     23          6           0       -8.513041    6.008598    0.231035
     24          6           0       -8.084516    7.178261   -0.144631
     25          7           0       -9.126563    0.629693   -0.501400
     26          6           0       -9.944586    1.795719   -0.571969
     27          6           0      -11.247778    1.427909   -1.038345
     28          6           0      -11.267483    0.039485   -1.187178
     29          6           0       -9.926840   -0.424001   -0.872072
     30          6           0      -12.247042    2.439833   -1.313159
     31          6           0      -12.390108   -0.856058   -1.683433
     32          6           0      -12.234873   -1.065801   -3.237857
     33          7           0       -7.339721   -1.344463   -0.086511
     34          6           0       -8.350584   -2.225481   -0.453177
     35          6           0       -7.876205   -3.564329   -0.445087
     36          6           0       -6.614491   -3.513048   -0.152256
     37          6           0       -6.262316   -2.211219    0.176074
     38          6           0       -8.669815   -4.770949   -0.758292
     39          6           0       -5.362471   -4.309308    0.166067
     40          8           0       -5.145417   -5.512560    0.089276
     41          6           0       -4.245012   -3.302047    0.637247
     42          6           0       -3.604479   -3.558621    1.957757
     43          8           0       -3.767182   -3.147169    3.059381
     44          8           0       -2.745963   -4.582313    1.694293
     45          6           0       -2.160801   -5.180744    2.902857
     46          6           0        2.802209   -0.571336   -1.214348
     47          6           0        4.143157   -0.473700   -0.618519
     48          6           0        5.106770    0.298402   -1.167998
     49          6           0        5.041951    0.926641   -2.505623
     50          6           0        6.495686    0.349032   -0.489391
     51          6           0        7.681408   -0.302559   -1.212057
     52          6           0        8.911159   -0.217648   -0.293305
     53          6           0       10.208786   -0.670552   -1.000329
     54          6           0       10.222806   -2.183700   -1.432418
     55          6           0       11.445511   -0.355754   -0.088414
     56          6           0       12.803200   -0.454058   -0.832030
     57          6           0       13.956329   -0.150521    0.111501
     58          6           0       15.399246   -0.149891   -0.469619
     59          6           0       15.854713   -1.632196   -0.831834
     60          6           0       16.500329    0.528980    0.442179
     61          6           0       17.829644    0.652320   -0.119991
     62          6           0       18.811541    1.319584    0.908746
     63          6           0       20.286629    1.371877    0.424480
     64          6           0       20.408430    2.135267   -0.899520
     65          6           0       21.232260    1.801269    1.506297
     66          1           0       -4.078185    3.531325    1.542675
     67          1           0      -10.167518    3.719861   -0.540138
     68          1           0      -10.401478   -2.464783   -1.075392
     69          1           0       -2.525940   -1.075298    2.161385
     70          1           0       -2.182958    1.620954    1.230047
     71          1           0       -2.062074    1.503886    3.854364
     72          1           0       -3.458921    2.456165    3.409508
     73          1           0       -3.740990    0.782416    3.758627
     74          1           0       -2.022517   -1.608729   -0.352659
     75          1           0       -2.185564    0.251246   -0.587678
     76          1           0       -0.082705    0.434645    1.195524
     77          1           0       -0.393723   -1.187442    1.098836
     78          1           0       -5.174349    6.188262    0.573753
     79          1           0       -6.217479    6.659330    1.680309
     80          1           0       -4.799574    5.554500    2.224343
     81          1           0       -9.638363    5.679360    0.416984
     82          1           0       -8.675128    8.024488   -0.280832
     83          1           0       -6.909262    7.085250   -0.426288
     84          1           0      -11.944661    3.079124   -2.442345
     85          1           0      -13.161332    1.920972   -1.613192
     86          1           0      -12.377171    3.125743   -0.525092
     87          1           0      -12.502431   -1.898152   -1.262062
     88          1           0      -13.377554   -0.330841   -1.615907
     89          1           0      -13.272502   -1.522539   -3.680590
     90          1           0      -11.777292   -0.189094   -3.806882
     91          1           0      -11.521684   -2.129903   -3.346929
     92          1           0       -8.626448   -4.974798   -2.049875
     93          1           0       -8.139671   -5.725315   -0.697333
     94          1           0       -9.596536   -4.594231   -0.128489
     95          1           0       -3.420880   -3.188191   -0.021418
     96          1           0       -1.677750   -4.504365    3.631161
     97          1           0       -2.771013   -5.499969    3.588731
     98          1           0       -1.606846   -6.069215    2.775626
     99          1           0        2.583884   -1.470253   -1.753001
    100          1           0        2.734776    0.184561   -1.987745
    101          1           0        4.063932   -0.709818    0.392237
    102          1           0        4.051735    1.287309   -2.849011
    103          1           0        5.634664    1.937005   -2.487709
    104          1           0        5.619873    0.388666   -3.180874
    105          1           0        6.699376    1.434436   -0.526254
    106          1           0        6.341896   -0.128865    0.464522
    107          1           0        7.349287   -1.238837   -1.423358
    108          1           0        8.087277    0.224652   -2.206497
    109          1           0        9.323296    0.934894    0.033509
    110          1           0        8.879484   -0.993602    0.659105
    111          1           0       10.159344   -0.239120   -1.750630
    112          1           0        9.377743   -2.253886   -2.127649
    113          1           0       11.179198   -2.333973   -1.915358
    114          1           0       10.296729   -2.814142   -0.616644
    115          1           0       11.266541    0.731716    0.256619
    116          1           0       11.518481   -1.135453    0.855197
    117          1           0       12.800916   -1.476117   -1.001283
    118          1           0       12.879271    0.212605   -1.751359
    119          1           0       13.678652    0.865867    0.287938
    120          1           0       13.994402   -0.809147    1.062552
    121          1           0       15.386612    0.413447   -1.403644
    122          1           0       15.917733   -2.198511   -0.015378
    123          1           0       15.131654   -2.016937   -1.497434
    124          1           0       16.665939   -1.578324   -1.499326
    125          1           0       16.182340    1.668322    0.682952
    126          1           0       16.699052   -0.210667    1.392142
    127          1           0       18.067023   -0.374329   -0.459728
    128          1           0       17.694933    1.403482   -0.943170
    129          1           0       18.446433    2.289765    1.278124
    130          1           0       18.787518    0.747702    1.860396
    131          1           0       20.635723    0.371913    0.044945
    132          1           0       19.801587    3.274609   -0.753166
    133          1           0       21.455159    2.314103   -0.830029
    134          1           0       20.134767    1.415456   -1.669156
    135          1           0       21.319474    1.224991    2.418768
    136          1           0       22.284699    2.103650    1.054075
    137          1           0       20.881548    2.727069    1.808285
 ---------------------------------------------------------------------

 SCF Done:  E(RCAM-B3LYP) =  -2932.55667104     A.U. after   19 cycles

 Excitation energies and oscillator strengths:

 Excited State   1:      Singlet-A      1.9366 eV  640.21 nm  f=0.2705  <S**2>=0.000
     240 -> 243        0.23269
     241 -> 242        0.66261
 This state for optimization and/or second-order correction.
 Total Energy, E(TD-HF/TD-KS) =  -2932.48550176
 Copying the excited state density for this state as the 1-particle RhoCI density.

 The electronic state is 1-A.
 Alpha  occ. eigenvalues --  -46.82663 -19.26202 -19.24790 -19.21727 -19.21196
 Alpha  occ. eigenvalues --  -19.20951 -14.42318 -14.39317 -14.38903 -14.38676
 Alpha  occ. eigenvalues --  -10.39261 -10.38650 -10.36445 -10.31405 -10.31051
 Alpha  occ. eigenvalues --  -10.29910 -10.29503 -10.29305 -10.29199 -10.29129
 Alpha  occ. eigenvalues --  -10.29019 -10.28961 -10.28687 -10.28530 -10.28445
 Alpha  occ. eigenvalues --  -10.28246 -10.28222 -10.28189 -10.28033 -10.27901
 Alpha  occ. eigenvalues --  -10.27723 -10.27459 -10.27391 -10.27284 -10.27183
 Alpha  occ. eigenvalues --  -10.27005 -10.26946 -10.26923 -10.26867 -10.26720
 Alpha  occ. eigenvalues --  -10.26559 -10.26388 -10.26324 -10.26275 -10.26083
 Alpha  occ. eigenvalues --  -10.26073 -10.26070 -10.26056 -10.25997 -10.25918
 Alpha  occ. eigenvalues --  -10.25847 -10.25693 -10.25580 -10.25520 -10.25153
 Alpha  occ. eigenvalues --  -10.25133 -10.24928 -10.24897 -10.24893 -10.24775
 Alpha  occ. eigenvalues --  -10.24756 -10.24212 -10.23654 -10.23496 -10.22718
 Alpha  occ. eigenvalues --   -3.11945  -1.86625  -1.86204  -1.86136  -1.18705
 Alpha  occ. eigenvalues --   -1.18572  -1.11100  -1.09984  -1.09602  -1.03810
 Alpha  occ. eigenvalues --   -1.01940  -1.01677  -1.00654  -0.92940  -0.91899
 Alpha  occ. eigenvalues --   -0.91331  -0.90347  -0.89986  -0.89742  -0.89553
 Alpha  occ. eigenvalues --   -0.88645  -0.88167  -0.87921  -0.87432  -0.86733
 Alpha  occ. eigenvalues --   -0.85737  -0.84798  -0.84196  -0.83927  -0.82832
 Alpha  occ. eigenvalues --   -0.81978  -0.81608  -0.80710  -0.80360  -0.78526
 Alpha  occ. eigenvalues --   -0.77935  -0.77463  -0.76204  -0.76068  -0.75804
 Alpha  occ. eigenvalues --   -0.75308  -0.75069  -0.74301  -0.73476  -0.72975
 Alpha  occ. eigenvalues --   -0.71563  -0.70608  -0.69231  -0.68357  -0.68069
 Alpha  occ. eigenvalues --   -0.67339  -0.66227  -0.65842  -0.64865  -0.64337
 Alpha  occ. eigenvalues --   -0.64164  -0.63643  -0.63108  -0.62053  -0.61720
 Alpha  occ. eigenvalues --   -0.61115  -0.61017  -0.60879  -0.59929  -0.59834
 Alpha  occ. eigenvalues --   -0.58543  -0.58242  -0.58086  -0.57604  -0.57221
 Alpha  occ. eigenvalues --   -0.56456  -0.56014  -0.55616  -0.55398  -0.55186
 Alpha  occ. eigenvalues --   -0.54819  -0.54721  -0.54240  -0.54044  -0.53477
 Alpha  occ. eigenvalues --   -0.52914  -0.52702  -0.52563  -0.52368  -0.52132
 Alpha  occ. eigenvalues --   -0.51837  -0.51476  -0.51400  -0.51151  -0.50907
 Alpha  occ. eigenvalues --   -0.50790  -0.50428  -0.50324  -0.50189  -0.50113
 Alpha  occ. eigenvalues --   -0.49535  -0.49470  -0.48935  -0.48858  -0.48484
 Alpha  occ. eigenvalues --   -0.48341  -0.47823  -0.47650  -0.47506  -0.47256
 Alpha  occ. eigenvalues --   -0.47139  -0.46792  -0.46212  -0.46144  -0.45907
 Alpha  occ. eigenvalues --   -0.45446  -0.45318  -0.45049  -0.45011  -0.44857
 Alpha  occ. eigenvalues --   -0.44682  -0.44666  -0.44494  -0.44434  -0.44222
 Alpha  occ. eigenvalues --   -0.44074  -0.43820  -0.43564  -0.43324  -0.43158
 Alpha  occ. eigenvalues --   -0.42915  -0.42733  -0.42641  -0.42518  -0.42194
 Alpha  occ. eigenvalues --   -0.42025  -0.41891  -0.41680  -0.41597  -0.41351
 Alpha  occ. eigenvalues --   -0.40954  -0.40929  -0.40654  -0.40634  -0.40371
 Alpha  occ. eigenvalues --   -0.40251  -0.40194  -0.39652  -0.39126  -0.39045
 Alpha  occ. eigenvalues --   -0.38737  -0.38517  -0.38359  -0.37683  -0.37550
 Alpha  occ. eigenvalues --   -0.37438  -0.37260  -0.37201  -0.37033  -0.36466
 Alpha  occ. eigenvalues --   -0.36375  -0.36061  -0.36019  -0.35716  -0.35679
 Alpha  occ. eigenvalues --   -0.35547  -0.35172  -0.34618  -0.34309  -0.33975
 Alpha  occ. eigenvalues --   -0.33791  -0.33289  -0.32007  -0.31277  -0.30804
 Alpha  occ. eigenvalues --   -0.29911  -0.29086  -0.27774  -0.26907  -0.23244
 Alpha  occ. eigenvalues --   -0.21414
 Alpha virt. eigenvalues --   -0.07234  -0.03101   0.01641   0.04365   0.05661
 Alpha virt. eigenvalues --    0.06104   0.06311   0.06448   0.07019   0.08084
 Alpha virt. eigenvalues --    0.08379   0.09990   0.10814   0.11107   0.11315

 Mulliken charges:
               1
     1  Mg   0.809661
     2  C    0.019202
     3  C   -0.206820
     4  C   -0.192403
     5  C   -0.125170
     6  N   -0.644575
     7  C    0.303886
     8  C   -0.161130
     9  C   -0.120983
    10  C    0.349148
    11  C   -0.325443
    12  C   -0.196074
    13  C   -0.209704
    14  C    0.581506
    15  O   -0.432656
    16  O   -0.517765
    17  N   -0.714663
    18  C    0.310597
    19  C   -0.007117
    20  C    0.036636
    21  C    0.324498
    22  C   -0.365567
    23  C   -0.031066
    24  C   -0.272403
    25  N   -0.697345
    26  C    0.299684
    27  C    0.053021
    28  C    0.012943
    29  C    0.325437
    30  C   -0.362685
    31  C   -0.249989
    32  C   -0.283753
    33  N   -0.737648
    34  C    0.253263
    35  C   -0.014551
    36  C    0.056756
    37  C    0.254146
    38  C   -0.362807
    39  C    0.394294
    40  O   -0.449935
    41  C   -0.306444
    42  C    0.622835
    43  O   -0.457134
    44  O   -0.458707
    45  C   -0.097491
    46  C    0.033740
    47  C   -0.138433
    48  C    0.089847
    49  C   -0.370429
    50  C   -0.205050
    51  C   -0.178105
    52  C   -0.149069
    53  C   -0.024458
    54  C   -0.326916
    55  C   -0.176636
    56  C   -0.176104
    57  C   -0.157982
    58  C   -0.074792
    59  C   -0.328693
    60  C   -0.146800
    61  C   -0.167560
    62  C   -0.166817
    63  C   -0.058144
    64  C   -0.282239
    65  C   -0.317447
    66  H    0.080299
    67  H    0.072452
    68  H    0.091646
    69  H    0.109280
    70  H    0.116777
    71  H    0.105863
    72  H    0.098284
    73  H    0.123138
    74  H    0.111371
    75  H    0.109955
    76  H    0.143043
    77  H    0.144466
    78  H    0.141270
    79  H    0.128995
    80  H    0.089137
    81  H    0.076224
    82  H    0.112176
    83  H    0.088151
    84  H    0.074270
    85  H    0.114596
    86  H    0.131619
    87  H    0.112458
    88  H    0.108701
    89  H    0.087462
    90  H    0.124858
    91  H    0.067022
    92  H    0.090730
    93  H    0.154627
    94  H    0.122786
    95  H    0.172035
    96  H    0.115270
    97  H    0.138094
    98  H    0.125162
    99  H    0.123965
   100  H    0.100937
   101  H    0.099331
   102  H    0.123821
   103  H    0.092488
   104  H    0.140935
   105  H    0.098103
   106  H    0.107825
   107  H    0.119866
   108  H    0.075752
   109  H    0.063269
   110  H    0.067816
   111  H    0.075190
   112  H    0.099042
   113  H    0.103360
   114  H    0.107823
   115  H    0.071033
   116  H    0.071523
   117  H    0.105031
   118  H    0.087586
   119  H    0.093237
   120  H    0.077050
   121  H    0.073344
   122  H    0.113575
   123  H    0.103319
   124  H    0.108253
   125  H    0.062900
   126  H    0.055647
   127  H    0.094918
   128  H    0.090877
   129  H    0.089211
   130  H    0.081341
   131  H    0.077750
   132  H    0.057905
   133  H    0.103624
   134  H    0.118011
   135  H    0.110525
   136  H    0.078039
   137  H    0.110159
 Sum of Mulliken charges =   0.00000

 Dipole moment (field-independent basis, Debye):
    X=              0.9536    Y=              3.1836    Z=              0.4336  Tot=              3.3515
 Quadrupole moment (field-independent basis, Debye-Ang):
   XX=           -345.3362   YY=           -391.6786   ZZ=           -397.3927
   XY=            -18.4882   XZ=              1.1321   YZ=             -4.1286

 Normal termination of Gaussian 09 at Sat Jun 29 18:34:05 2019.
