 Gaussian 09, Revision D.01,
 Gaussian 09:  ES64L-G09RevD.01 24-Apr-2013

 -------------------------------------
 # td=(NStates=1) CAM-B3LYP/6-31G(d,p)
 -------------------------------------

 --
 TD
 --
 Symbolic Z-matrix:
 Charge =  0 Multiplicity = 1

                         Standard orientation:
 ---------------------------------------------------------------------
 Center     Atomic      Atomic             Coordinates (Angstroms)
 Number     Number       Type             X           Y           Z
 ---------------------------------------------------------------------
      1         12           0       -7.116907    0.571267    0.083770
      2          6           0       -4.828206   -1.935971    0.556675
      3          6           0       -4.799625    2.727527    1.205453
      4          6           0       -9.381246    3.100815   -0.413810
      5          6           0       -9.631783   -1.732938   -0.891092
      6          7           0       -5.118940    0.445111    0.694529
      7          6           0       -4.258270   -0.708110    0.794735
      8          6           0       -2.894278   -0.371389    1.180207
      9          6           0       -3.007759    1.120758    1.592659
     10          6           0       -4.407009    1.448612    1.082286
     11          6           0       -2.947853    1.239735    3.177682
     12          6           0       -2.003661   -0.578621   -0.064798
     13          6           0       -0.501230   -0.362899    0.426641
     14          6           0        0.508215   -0.577814   -0.667871
     15          8           0        0.308360   -1.043195   -1.776006
     16          8           0        1.801379   -0.298008   -0.202671
     17          7           0       -7.163505    2.626399    0.354377
     18          6           0       -6.092952    3.288837    0.817142
     19          6           0       -6.378873    4.679665    0.862347
     20          6           0       -7.696252    4.803169    0.377348
     21          6           0       -8.082827    3.510988    0.078713
     22          6           0       -5.468362    5.733228    1.416528
     23          6           0       -8.487021    6.072858    0.443334
     24          6           0       -8.148346    7.346365    0.244609
     25          7           0       -9.098679    0.661545   -0.547284
     26          6           0       -9.877104    1.792536   -0.548037
     27          6           0      -11.316818    1.429972   -0.952572
     28          6           0      -11.324576    0.075593   -1.013298
     29          6           0       -9.917447   -0.416267   -0.819040
     30          6           0      -12.354106    2.501678   -1.363167
     31          6           0      -12.450331   -0.680204   -1.691603
     32          6           0      -12.358861   -0.823209   -3.139576
     33          7           0       -7.243186   -1.372433   -0.227322
     34          6           0       -8.350947   -2.272114   -0.522812
     35          6           0       -7.758936   -3.614168   -0.542641
     36          6           0       -6.469671   -3.567009   -0.069150
     37          6           0       -6.204104   -2.193581    0.174960
     38          6           0       -8.656603   -4.868388   -0.783714
     39          6           0       -5.420004   -4.377514    0.297187
     40          8           0       -5.234046   -5.557404    0.229489
     41          6           0       -4.142279   -3.322457    0.558277
     42          6           0       -3.561205   -3.686202    1.971265
     43          8           0       -3.797800   -3.276028    3.004028
     44          8           0       -2.723932   -4.689503    1.582291
     45          6           0       -2.053614   -5.253179    2.866665
     46          6           0        2.757922   -0.678436   -1.275985
     47          6           0        4.081095   -0.495708   -0.641979
     48          6           0        5.110870    0.404512   -1.130685
     49          6           0        5.044286    1.280921   -2.285010
     50          6           0        6.370096    0.541532   -0.386491
     51          6           0        7.563041   -0.247538   -1.045629
     52          6           0        8.920297   -0.203390   -0.143896
     53          6           0       10.250565   -0.615251   -0.979436
     54          6           0       10.105024   -2.064306   -1.402174
     55          6           0       11.392915   -0.385334   -0.001862
     56          6           0       12.765695   -0.600399   -0.652107
     57          6           0       13.991380   -0.230100    0.244651
     58          6           0       15.459823   -0.187301   -0.341999
     59          6           0       15.720594   -1.639632   -0.932076
     60          6           0       16.457034    0.407128    0.505205
     61          6           0       17.872349    0.515605   -0.107307
     62          6           0       18.894227    1.161611    0.892039
     63          6           0       20.291019    1.395433    0.251728
     64          6           0       20.117751    2.317055   -1.034729
     65          6           0       21.286780    1.975882    1.354215
     66          1           0       -4.195783    3.451995    1.509663
     67          1           0      -10.351110    3.727330   -0.388798
     68          1           0      -10.552974   -2.503835   -0.957287
     69          1           0       -2.575718   -1.027394    2.141832
     70          1           0       -2.164358    1.692183    1.191652
     71          1           0       -1.714481    1.038592    3.623048
     72          1           0       -3.145909    2.273074    3.459087
     73          1           0       -3.621604    0.511139    3.588906
     74          1           0       -2.091790   -1.712418   -0.373953
     75          1           0       -2.317821   -0.085940   -0.808731
     76          1           0       -0.411771    0.736582    0.634473
     77          1           0       -0.052121   -0.893464    1.303665
     78          1           0       -4.776602    6.063335    0.729035
     79          1           0       -6.048855    6.541637    1.806113
     80          1           0       -4.917917    5.317279    2.344018
     81          1           0       -9.509615    5.908199    0.311902
     82          1           0       -8.788531    8.225264    0.236427
     83          1           0       -7.150373    7.624693    0.036903
     84          1           0      -11.988193    3.342938   -1.996639
     85          1           0      -13.292917    1.915430   -1.841986
     86          1           0      -12.630410    2.774495   -0.407133
     87          1           0      -12.536012   -1.725302   -1.103759
     88          1           0      -13.440906   -0.193862   -1.487397
     89          1           0      -13.219668   -1.377251   -3.837978
     90          1           0      -12.210206    0.035585   -3.671358
     91          1           0      -11.475958   -1.409445   -3.240517
     92          1           0       -8.970245   -4.792145   -1.875810
     93          1           0       -8.290461   -5.681793   -0.715341
     94          1           0       -9.431956   -4.946076   -0.121762
     95          1           0       -3.520952   -3.498509   -0.464550
     96          1           0       -1.604670   -4.246790    3.306024
     97          1           0       -3.037218   -5.434386    3.324385
     98          1           0       -1.361672   -6.132374    2.329919
     99          1           0        2.703787   -1.732193   -1.626021
    100          1           0        2.777461   -0.096810   -2.145585
    101          1           0        4.314412   -1.029920    0.300393
    102          1           0        4.095138    1.240342   -2.916074
    103          1           0        5.235755    2.363962   -2.123601
    104          1           0        5.798342    1.002462   -3.069638
    105          1           0        6.705934    1.615572   -0.073372
    106          1           0        6.209459   -0.039441    0.562472
    107          1           0        7.334091   -1.100715   -1.565052
    108          1           0        7.770168    0.451487   -1.886799
    109          1           0        9.100889    0.854272    0.208348
    110          1           0        8.784735   -0.814478    0.609112
    111          1           0       10.222319    0.075125   -1.905343
    112          1           0        9.376156   -1.916175   -2.450976
    113          1           0       11.109264   -2.546355   -1.739794
    114          1           0        9.614554   -2.771931   -0.610503
    115          1           0       11.320335    0.771490    0.285712
    116          1           0       11.205672   -0.950502    0.900939
    117          1           0       12.817672   -1.711546   -0.929156
    118          1           0       12.604770    0.071872   -1.556011
    119          1           0       14.001127    0.730746    0.750141
    120          1           0       14.073771   -0.868474    1.146751
    121          1           0       15.339012    0.504592   -1.181994
    122          1           0       15.545088   -2.407084   -0.059023
    123          1           0       14.929614   -1.930625   -1.754128
    124          1           0       16.761509   -1.826134   -1.290907
    125          1           0       16.289711    1.404189    0.652471
    126          1           0       16.626229   -0.271310    1.365572
    127          1           0       18.322468   -0.437076   -0.326374
    128          1           0       17.965090    1.053458   -0.946350
    129          1           0       18.536192    2.204556    1.114683
    130          1           0       19.110846    0.479331    1.689987
    131          1           0       20.615304    0.201375    0.096380
    132          1           0       19.820203    3.326863   -0.551257
    133          1           0       21.114144    2.629987   -1.523113
    134          1           0       19.473876    2.022439   -1.781072
    135          1           0       21.216474    1.356867    2.220380
    136          1           0       22.387984    2.264182    0.853399
    137          1           0       20.737689    2.744842    1.880942
 ---------------------------------------------------------------------

 SCF Done:  E(RCAM-B3LYP) =  -2932.59714310     A.U. after   18 cycles

 Excitation energies and oscillator strengths:

 Excited State   1:      Singlet-A      1.8846 eV  657.87 nm  f=0.3148  <S**2>=0.000
     240 -> 243       -0.19294
     241 -> 242        0.67790
 This state for optimization and/or second-order correction.
 Total Energy, E(TD-HF/TD-KS) =  -2932.52788459
 Copying the excited state density for this state as the 1-particle RhoCI density.

 The electronic state is 1-A.
 Alpha  occ. eigenvalues --  -46.84403 -19.26037 -19.24338 -19.22353 -19.21289
 Alpha  occ. eigenvalues --  -19.19812 -14.42029 -14.40099 -14.39753 -14.39170
 Alpha  occ. eigenvalues --  -10.39117 -10.38395 -10.33939 -10.33151 -10.30798
 Alpha  occ. eigenvalues --  -10.30340 -10.30137 -10.30044 -10.29789 -10.29673
 Alpha  occ. eigenvalues --  -10.29457 -10.29418 -10.29243 -10.28841 -10.28675
 Alpha  occ. eigenvalues --  -10.28404 -10.28253 -10.28171 -10.28135 -10.28061
 Alpha  occ. eigenvalues --  -10.27977 -10.27948 -10.27787 -10.27617 -10.27602
 Alpha  occ. eigenvalues --  -10.27467 -10.27416 -10.27162 -10.26987 -10.26961
 Alpha  occ. eigenvalues --  -10.26838 -10.26705 -10.26647 -10.26530 -10.26526
 Alpha  occ. eigenvalues --  -10.26434 -10.26288 -10.26233 -10.25947 -10.25875
 Alpha  occ. eigenvalues --  -10.25859 -10.25720 -10.25654 -10.25629 -10.25344
 Alpha  occ. eigenvalues --  -10.25226 -10.25203 -10.24991 -10.24907 -10.24868
 Alpha  occ. eigenvalues --  -10.24610 -10.24345 -10.24058 -10.23580 -10.23437
 Alpha  occ. eigenvalues --   -3.13503  -1.88206  -1.87734  -1.87694  -1.19560
 Alpha  occ. eigenvalues --   -1.16453  -1.11519  -1.09912  -1.08182  -1.06376
 Alpha  occ. eigenvalues --   -1.05040  -1.02613  -1.01214  -0.91594  -0.90722
 Alpha  occ. eigenvalues --   -0.90495  -0.90239  -0.89313  -0.89192  -0.88875
 Alpha  occ. eigenvalues --   -0.88304  -0.87569  -0.87428  -0.86406  -0.85808
 Alpha  occ. eigenvalues --   -0.84574  -0.83872  -0.83432  -0.82821  -0.82336
 Alpha  occ. eigenvalues --   -0.81454  -0.80884  -0.79591  -0.79155  -0.78929
 Alpha  occ. eigenvalues --   -0.78339  -0.77461  -0.76009  -0.75845  -0.75170
 Alpha  occ. eigenvalues --   -0.74649  -0.73916  -0.73821  -0.73540  -0.72497
 Alpha  occ. eigenvalues --   -0.71071  -0.70168  -0.69198  -0.68740  -0.68205
 Alpha  occ. eigenvalues --   -0.67708  -0.66769  -0.65355  -0.65151  -0.64861
 Alpha  occ. eigenvalues --   -0.63009  -0.62903  -0.62346  -0.62063  -0.61332
 Alpha  occ. eigenvalues --   -0.60725  -0.60612  -0.60307  -0.59527  -0.59080
 Alpha  occ. eigenvalues --   -0.58752  -0.58157  -0.57251  -0.56714  -0.56189
 Alpha  occ. eigenvalues --   -0.56115  -0.55875  -0.55219  -0.54999  -0.54817
 Alpha  occ. eigenvalues --   -0.54060  -0.53869  -0.53548  -0.53368  -0.52754
 Alpha  occ. eigenvalues --   -0.52672  -0.52382  -0.52158  -0.51964  -0.51883
 Alpha  occ. eigenvalues --   -0.51610  -0.51294  -0.51152  -0.50817  -0.50414
 Alpha  occ. eigenvalues --   -0.50250  -0.50128  -0.49865  -0.49695  -0.49054
 Alpha  occ. eigenvalues --   -0.48784  -0.48703  -0.48543  -0.48280  -0.48133
 Alpha  occ. eigenvalues --   -0.47852  -0.47827  -0.47444  -0.47385  -0.47239
 Alpha  occ. eigenvalues --   -0.47149  -0.46809  -0.46525  -0.46289  -0.45969
 Alpha  occ. eigenvalues --   -0.45848  -0.45764  -0.45643  -0.45337  -0.45236
 Alpha  occ. eigenvalues --   -0.45094  -0.44952  -0.44767  -0.44435  -0.44331
 Alpha  occ. eigenvalues --   -0.43804  -0.43588  -0.43419  -0.43247  -0.43165
 Alpha  occ. eigenvalues --   -0.42849  -0.42794  -0.42665  -0.42653  -0.42170
 Alpha  occ. eigenvalues --   -0.42050  -0.41850  -0.41803  -0.41522  -0.41357
 Alpha  occ. eigenvalues --   -0.41165  -0.40991  -0.40640  -0.40576  -0.40451
 Alpha  occ. eigenvalues --   -0.39975  -0.39733  -0.39707  -0.39545  -0.38970
 Alpha  occ. eigenvalues --   -0.38783  -0.38554  -0.38116  -0.37991  -0.37822
 Alpha  occ. eigenvalues --   -0.37659  -0.37041  -0.36961  -0.36562  -0.36437
 Alpha  occ. eigenvalues --   -0.36355  -0.36310  -0.36126  -0.35985  -0.35661
 Alpha  occ. eigenvalues --   -0.35593  -0.35406  -0.34812  -0.34335  -0.33846
 Alpha  occ. eigenvalues --   -0.33625  -0.33192  -0.31879  -0.31198  -0.29847
 Alpha  occ. eigenvalues --   -0.28945  -0.28905  -0.27602  -0.27401  -0.23201
 Alpha  occ. eigenvalues --   -0.21394
 Alpha virt. eigenvalues --   -0.07845  -0.02064   0.01597   0.04402   0.04462
 Alpha virt. eigenvalues --    0.05888   0.06167   0.06412   0.07084   0.07645
 Alpha virt. eigenvalues --    0.08631   0.09935   0.10503   0.10826   0.10957

 Mulliken charges:
               1
     1  Mg   0.813899
     2  C    0.005339
     3  C   -0.168912
     4  C   -0.179870
     5  C   -0.182013
     6  N   -0.641647
     7  C    0.284654
     8  C   -0.168181
     9  C   -0.147407
    10  C    0.407120
    11  C   -0.285890
    12  C   -0.144849
    13  C   -0.273858
    14  C    0.611086
    15  O   -0.469610
    16  O   -0.499274
    17  N   -0.693967
    18  C    0.296557
    19  C   -0.001378
    20  C   -0.004750
    21  C    0.302958
    22  C   -0.373230
    23  C   -0.063868
    24  C   -0.250309
    25  N   -0.660224
    26  C    0.262831
    27  C    0.022428
    28  C   -0.014372
    29  C    0.329365
    30  C   -0.360330
    31  C   -0.235443
    32  C   -0.286116
    33  N   -0.714583
    34  C    0.233592
    35  C   -0.045559
    36  C    0.081923
    37  C    0.306209
    38  C   -0.325385
    39  C    0.313716
    40  O   -0.445395
    41  C   -0.333940
    42  C    0.619878
    43  O   -0.428490
    44  O   -0.485035
    45  C   -0.103395
    46  C    0.026432
    47  C   -0.147697
    48  C    0.130769
    49  C   -0.380088
    50  C   -0.232895
    51  C   -0.197461
    52  C   -0.171621
    53  C   -0.066500
    54  C   -0.280534
    55  C   -0.162581
    56  C   -0.167400
    57  C   -0.178409
    58  C   -0.055474
    59  C   -0.311186
    60  C   -0.152711
    61  C   -0.195146
    62  C   -0.179181
    63  C   -0.048140
    64  C   -0.314908
    65  C   -0.305221
    66  H    0.055530
    67  H    0.087718
    68  H    0.109728
    69  H    0.115001
    70  H    0.105373
    71  H    0.059747
    72  H    0.117223
    73  H    0.137462
    74  H    0.118506
    75  H    0.124617
    76  H    0.134579
    77  H    0.150072
    78  H    0.135719
    79  H    0.126964
    80  H    0.103694
    81  H    0.085854
    82  H    0.110488
    83  H    0.100515
    84  H    0.135416
    85  H    0.102717
    86  H    0.147279
    87  H    0.078941
    88  H    0.095802
    89  H    0.077493
    90  H    0.122954
    91  H    0.114011
    92  H    0.107637
    93  H    0.129908
    94  H    0.126322
    95  H    0.154402
    96  H    0.130390
    97  H    0.161395
    98  H    0.137807
    99  H    0.130467
   100  H    0.121384
   101  H    0.090281
   102  H    0.103050
   103  H    0.122249
   104  H    0.119516
   105  H    0.093882
   106  H    0.091155
   107  H    0.111891
   108  H    0.083915
   109  H    0.084561
   110  H    0.108020
   111  H    0.084740
   112  H    0.068184
   113  H    0.095510
   114  H    0.099336
   115  H    0.069899
   116  H    0.094425
   117  H    0.092669
   118  H    0.090205
   119  H    0.082610
   120  H    0.082064
   121  H    0.078156
   122  H    0.079685
   123  H    0.097309
   124  H    0.098384
   125  H    0.103087
   126  H    0.085813
   127  H    0.091503
   128  H    0.097683
   129  H    0.077959
   130  H    0.094663
   131  H    0.049772
   132  H    0.093007
   133  H    0.090531
   134  H    0.124371
   135  H    0.107098
   136  H    0.094329
   137  H    0.101050
 Sum of Mulliken charges =   0.00000

 Dipole moment (field-independent basis, Debye):
    X=              0.8054    Y=              5.0564    Z=              0.6946  Tot=              5.1670
 Quadrupole moment (field-independent basis, Debye-Ang):
   XX=           -352.7762   YY=           -393.6015   ZZ=           -398.2766
   XY=            -18.8173   XZ=              9.8149   YZ=             -5.6084

 Normal termination of Gaussian 09 at Sat Jun 29 20:18:37 2019.
