 Gaussian 09, Revision D.01,
 Gaussian 09:  ES64L-G09RevD.01 24-Apr-2013

 -------------------------------------
 # td=(NStates=1) CAM-B3LYP/6-31G(d,p)
 -------------------------------------

 --
 TD
 --
 Symbolic Z-matrix:
 Charge =  0 Multiplicity = 1

                         Standard orientation:
 ---------------------------------------------------------------------
 Center     Atomic      Atomic             Coordinates (Angstroms)
 Number     Number       Type             X           Y           Z
 ---------------------------------------------------------------------
      1         12           0       -7.100553    0.591255    0.126835
      2          6           0       -4.746942   -1.970369    0.510294
      3          6           0       -4.914101    2.815576    1.166020
      4          6           0       -9.531535    3.042234   -0.328898
      5          6           0       -9.450350   -1.764805   -0.829892
      6          7           0       -5.126648    0.402474    0.801098
      7          6           0       -4.342722   -0.698266    0.739590
      8          6           0       -2.865869   -0.307236    1.174154
      9          6           0       -2.999160    1.206324    1.625715
     10          6           0       -4.430201    1.533538    1.136778
     11          6           0       -2.816323    1.481786    3.102268
     12          6           0       -1.834526   -0.609832    0.055704
     13          6           0       -0.477285   -0.302029    0.484118
     14          6           0        0.593887   -0.501561   -0.632580
     15          8           0        0.239325   -0.929397   -1.716057
     16          8           0        1.852795   -0.303888   -0.174937
     17          7           0       -7.221130    2.546906    0.411941
     18          6           0       -6.225601    3.327698    0.838184
     19          6           0       -6.609703    4.705657    0.826600
     20          6           0       -7.898225    4.751212    0.320964
     21          6           0       -8.273744    3.379033    0.137940
     22          6           0       -5.740410    5.878342    1.236686
     23          6           0       -8.777894    5.996488    0.111000
     24          6           0       -8.328028    7.232541    0.121701
     25          7           0       -9.147177    0.553773   -0.537493
     26          6           0       -9.952517    1.709413   -0.667605
     27          6           0      -11.312673    1.360159   -1.015787
     28          6           0      -11.280650   -0.039985   -1.148041
     29          6           0       -9.939999   -0.431906   -0.913846
     30          6           0      -12.383091    2.259599   -1.251987
     31          6           0      -12.372800   -0.935479   -1.644741
     32          6           0      -12.522109   -1.189711   -3.129948
     33          7           0       -7.128086   -1.481824   -0.055001
     34          6           0       -8.199834   -2.336774   -0.553666
     35          6           0       -7.756463   -3.694030   -0.571458
     36          6           0       -6.501947   -3.594004   -0.091962
     37          6           0       -6.106785   -2.214959    0.106158
     38          6           0       -8.401677   -4.867995   -0.879902
     39          6           0       -5.281638   -4.376840    0.149492
     40          8           0       -5.056593   -5.554290    0.215983
     41          6           0       -4.116217   -3.293159    0.537371
     42          6           0       -3.494977   -3.686559    1.875900
     43          8           0       -3.954621   -3.239121    2.922543
     44          8           0       -2.519197   -4.594151    1.754860
     45          6           0       -1.956585   -4.989232    2.965901
     46          6           0        2.873881   -0.538346   -1.307375
     47          6           0        4.224198   -0.322629   -0.628749
     48          6           0        5.179378    0.411056   -1.114895
     49          6           0        5.073526    1.242557   -2.245090
     50          6           0        6.467405    0.468167   -0.416613
     51          6           0        7.644055   -0.056630   -1.050674
     52          6           0        8.869677   -0.086683   -0.123167
     53          6           0       10.213160   -0.505647   -0.898729
     54          6           0       10.040743   -1.999468   -1.342045
     55          6           0       11.421701   -0.370460    0.043413
     56          6           0       12.815808   -0.444920   -0.673947
     57          6           0       13.961532    0.007119    0.256676
     58          6           0       15.298463   -0.169839   -0.456761
     59          6           0       15.694437   -1.493559   -0.827238
     60          6           0       16.396517    0.537735    0.482772
     61          6           0       17.714727    0.519596   -0.098874
     62          6           0       18.813541    1.255132    0.693433
     63          6           0       20.255430    1.160596    0.240333
     64          6           0       20.431942    1.941314   -0.985033
     65          6           0       21.205720    1.781397    1.352227
     66          1           0       -4.119770    3.623798    1.469392
     67          1           0      -10.358384    3.913330   -0.247018
     68          1           0      -10.306312   -2.442156   -0.922068
     69          1           0       -2.489069   -0.840989    2.048517
     70          1           0       -2.292480    1.920362    1.053282
     71          1           0       -1.842545    1.120639    3.583192
     72          1           0       -3.030719    2.561411    3.274438
     73          1           0       -3.438861    0.748339    3.542978
     74          1           0       -1.885674   -1.708831   -0.039803
     75          1           0       -1.990269    0.094331   -0.873684
     76          1           0       -0.199285    0.598660    0.996609
     77          1           0       -0.033767   -0.953737    1.333596
     78          1           0       -5.052563    6.304161    0.485936
     79          1           0       -6.572773    6.768445    1.457232
     80          1           0       -5.343558    5.512737    2.257997
     81          1           0       -9.996392    5.768656    0.320169
     82          1           0       -9.116308    7.958241    0.164603
     83          1           0       -7.282554    7.501937    0.082742
     84          1           0      -12.090257    3.180649   -1.816365
     85          1           0      -13.219867    1.686886   -1.662449
     86          1           0      -12.842609    2.884148   -0.423721
     87          1           0      -12.489914   -1.856260   -1.172151
     88          1           0      -13.366810   -0.317762   -1.346774
     89          1           0      -13.267700   -1.704057   -3.135010
     90          1           0      -12.470717   -0.396987   -3.642441
     91          1           0      -11.584742   -1.729707   -3.281255
     92          1           0       -8.896918   -5.041756   -1.873785
     93          1           0       -7.935531   -5.908500   -0.802287
     94          1           0       -9.359967   -4.834763   -0.247451
     95          1           0       -3.385473   -3.636258   -0.277062
     96          1           0       -1.362065   -4.206450    3.431086
     97          1           0       -2.698559   -5.300745    3.723767
     98          1           0       -1.069968   -5.537765    2.810513
     99          1           0        2.854877   -1.582516   -1.543729
    100          1           0        2.819839    0.119532   -2.184913
    101          1           0        4.393686   -1.036495    0.232061
    102          1           0        4.064513    1.281990   -2.490383
    103          1           0        5.203787    2.409499   -2.007562
    104          1           0        5.717215    0.932074   -3.220150
    105          1           0        6.690914    1.568648    0.109839
    106          1           0        6.331394   -0.108239    0.500225
    107          1           0        7.281868   -0.955335   -1.363239
    108          1           0        7.833566    0.477718   -1.892148
    109          1           0        9.088025    0.788703    0.366414
    110          1           0        8.931264   -0.826721    0.604215
    111          1           0       10.455124    0.125216   -1.852036
    112          1           0        9.185546   -2.312856   -1.879039
    113          1           0       10.748949   -2.214438   -1.957609
    114          1           0        9.900305   -2.679702   -0.372232
    115          1           0       11.257348    0.601347    0.431644
    116          1           0       11.408662   -1.039328    0.933561
    117          1           0       13.143591   -1.567823   -0.886914
    118          1           0       12.974569   -0.041612   -1.722951
    119          1           0       13.804810    0.952520    0.506805
    120          1           0       13.855970   -0.630337    1.186403
    121          1           0       15.262024    0.385239   -1.402355
    122          1           0       15.717212   -2.193164   -0.030940
    123          1           0       15.032282   -1.791816   -1.668999
    124          1           0       16.742518   -1.460726   -1.339497
    125          1           0       16.144792    1.600937    0.667477
    126          1           0       16.541941    0.035955    1.344659
    127          1           0       18.010516   -0.304778   -0.301993
    128          1           0       17.759114    0.998466   -1.134320
    129          1           0       18.629802    2.332915    0.904691
    130          1           0       18.616156    0.944311    1.695708
    131          1           0       20.519890   -0.093106    0.137138
    132          1           0       19.858414    2.814853   -0.922163
    133          1           0       21.605910    2.085484   -1.323061
    134          1           0       19.915089    1.411637   -1.719443
    135          1           0       21.161709    1.138053    2.300391
    136          1           0       22.168540    1.886806    0.903042
    137          1           0       20.752018    2.671348    1.462361
 ---------------------------------------------------------------------

 SCF Done:  E(RCAM-B3LYP) =  -2932.64367118     A.U. after   15 cycles

 Excitation energies and oscillator strengths:

 Excited State   1:      Singlet-A      2.1481 eV  577.18 nm  f=0.2100  <S**2>=0.000
     240 -> 243        0.25180
     241 -> 242        0.64598
 This state for optimization and/or second-order correction.
 Total Energy, E(TD-HF/TD-KS) =  -2932.56472926
 Copying the excited state density for this state as the 1-particle RhoCI density.

 The electronic state is 1-A.
 Alpha  occ. eigenvalues --  -46.84673 -19.26994 -19.26849 -19.20430 -19.20403
 Alpha  occ. eigenvalues --  -19.20021 -14.40960 -14.39698 -14.39357 -14.39148
 Alpha  occ. eigenvalues --  -10.38719 -10.38691 -10.34988 -10.32502 -10.30638
 Alpha  occ. eigenvalues --  -10.30593 -10.30272 -10.30119 -10.29769 -10.29458
 Alpha  occ. eigenvalues --  -10.28793 -10.28699 -10.28496 -10.28494 -10.28319
 Alpha  occ. eigenvalues --  -10.28233 -10.27897 -10.27878 -10.27730 -10.27705
 Alpha  occ. eigenvalues --  -10.27322 -10.27253 -10.26913 -10.26902 -10.26827
 Alpha  occ. eigenvalues --  -10.26805 -10.26763 -10.26762 -10.26458 -10.26295
 Alpha  occ. eigenvalues --  -10.26238 -10.26224 -10.26160 -10.26136 -10.26124
 Alpha  occ. eigenvalues --  -10.25956 -10.25911 -10.25800 -10.25604 -10.25599
 Alpha  occ. eigenvalues --  -10.25341 -10.25304 -10.25286 -10.24853 -10.24436
 Alpha  occ. eigenvalues --  -10.24271 -10.24195 -10.24149 -10.23947 -10.23591
 Alpha  occ. eigenvalues --  -10.23489 -10.23469 -10.23330 -10.22344 -10.21556
 Alpha  occ. eigenvalues --   -3.13644  -1.88358  -1.87856  -1.87843  -1.18889
 Alpha  occ. eigenvalues --   -1.16539  -1.11780  -1.08625  -1.08400  -1.05088
 Alpha  occ. eigenvalues --   -1.04707  -1.03009  -1.02582  -0.93667  -0.91809
 Alpha  occ. eigenvalues --   -0.91745  -0.90219  -0.89915  -0.89566  -0.89251
 Alpha  occ. eigenvalues --   -0.89123  -0.89042  -0.88230  -0.87279  -0.86511
 Alpha  occ. eigenvalues --   -0.85652  -0.84845  -0.84399  -0.83790  -0.83278
 Alpha  occ. eigenvalues --   -0.82074  -0.81595  -0.80861  -0.80664  -0.78953
 Alpha  occ. eigenvalues --   -0.77941  -0.77257  -0.76869  -0.76244  -0.76164
 Alpha  occ. eigenvalues --   -0.75974  -0.75458  -0.75144  -0.73698  -0.72803
 Alpha  occ. eigenvalues --   -0.71532  -0.70281  -0.69746  -0.69298  -0.67609
 Alpha  occ. eigenvalues --   -0.67081  -0.66477  -0.65802  -0.65306  -0.64397
 Alpha  occ. eigenvalues --   -0.63929  -0.63640  -0.62610  -0.62247  -0.62076
 Alpha  occ. eigenvalues --   -0.61536  -0.60732  -0.60042  -0.59983  -0.59486
 Alpha  occ. eigenvalues --   -0.58848  -0.58439  -0.57853  -0.57379  -0.56958
 Alpha  occ. eigenvalues --   -0.56472  -0.56001  -0.55805  -0.55634  -0.55105
 Alpha  occ. eigenvalues --   -0.54764  -0.54569  -0.53986  -0.53641  -0.53569
 Alpha  occ. eigenvalues --   -0.53370  -0.52912  -0.52716  -0.52211  -0.52074
 Alpha  occ. eigenvalues --   -0.51819  -0.51627  -0.51376  -0.51019  -0.50954
 Alpha  occ. eigenvalues --   -0.50771  -0.50407  -0.50301  -0.50131  -0.49805
 Alpha  occ. eigenvalues --   -0.49657  -0.49244  -0.49084  -0.49018  -0.48834
 Alpha  occ. eigenvalues --   -0.48639  -0.48120  -0.48033  -0.47626  -0.47512
 Alpha  occ. eigenvalues --   -0.47401  -0.47226  -0.46988  -0.46800  -0.46389
 Alpha  occ. eigenvalues --   -0.45982  -0.45661  -0.45638  -0.45431  -0.45374
 Alpha  occ. eigenvalues --   -0.45131  -0.44921  -0.44643  -0.44194  -0.44032
 Alpha  occ. eigenvalues --   -0.43788  -0.43695  -0.43588  -0.43318  -0.43258
 Alpha  occ. eigenvalues --   -0.43108  -0.43054  -0.42863  -0.42532  -0.42370
 Alpha  occ. eigenvalues --   -0.42236  -0.42110  -0.42002  -0.41815  -0.41391
 Alpha  occ. eigenvalues --   -0.41083  -0.40953  -0.40761  -0.40523  -0.40365
 Alpha  occ. eigenvalues --   -0.40201  -0.39429  -0.39194  -0.39161  -0.38813
 Alpha  occ. eigenvalues --   -0.38665  -0.38507  -0.38207  -0.37968  -0.37802
 Alpha  occ. eigenvalues --   -0.37717  -0.37610  -0.37348  -0.37136  -0.36834
 Alpha  occ. eigenvalues --   -0.36616  -0.36374  -0.35911  -0.35677  -0.35571
 Alpha  occ. eigenvalues --   -0.35488  -0.35159  -0.34716  -0.33404  -0.32916
 Alpha  occ. eigenvalues --   -0.32811  -0.32551  -0.31856  -0.31153  -0.30592
 Alpha  occ. eigenvalues --   -0.29717  -0.29367  -0.28566  -0.27310  -0.23071
 Alpha  occ. eigenvalues --   -0.21639
 Alpha virt. eigenvalues --   -0.06190  -0.03068   0.02688   0.04611   0.05465
 Alpha virt. eigenvalues --    0.05790   0.06142   0.06989   0.07379   0.07407
 Alpha virt. eigenvalues --    0.08565   0.09803   0.11104   0.11702   0.12482

 Mulliken charges:
               1
     1  Mg   0.826070
     2  C    0.166947
     3  C   -0.231887
     4  C   -0.165393
     5  C   -0.186324
     6  N   -0.675658
     7  C    0.308462
     8  C   -0.176190
     9  C   -0.140252
    10  C    0.362882
    11  C   -0.300382
    12  C   -0.144325
    13  C   -0.280112
    14  C    0.616197
    15  O   -0.477130
    16  O   -0.492010
    17  N   -0.735351
    18  C    0.342529
    19  C   -0.001064
    20  C    0.008245
    21  C    0.297201
    22  C   -0.370515
    23  C   -0.044639
    24  C   -0.251507
    25  N   -0.653769
    26  C    0.233195
    27  C    0.079979
    28  C    0.013299
    29  C    0.301746
    30  C   -0.404527
    31  C   -0.274320
    32  C   -0.250010
    33  N   -0.711587
    34  C    0.214992
    35  C    0.158266
    36  C   -0.034510
    37  C    0.314170
    38  C   -0.440541
    39  C    0.361773
    40  O   -0.448081
    41  C   -0.374615
    42  C    0.643542
    43  O   -0.489291
    44  O   -0.431692
    45  C   -0.088734
    46  C   -0.006206
    47  C   -0.145642
    48  C    0.169510
    49  C   -0.364200
    50  C   -0.229635
    51  C   -0.149350
    52  C   -0.174312
    53  C   -0.091233
    54  C   -0.294522
    55  C   -0.168272
    56  C   -0.198725
    57  C   -0.150420
    58  C   -0.064824
    59  C   -0.308659
    60  C   -0.175360
    61  C   -0.152042
    62  C   -0.188914
    63  C   -0.059458
    64  C   -0.288625
    65  C   -0.291785
    66  H    0.076591
    67  H    0.093509
    68  H    0.082613
    69  H    0.111568
    70  H    0.093961
    71  H    0.097595
    72  H    0.110569
    73  H    0.132147
    74  H    0.125870
    75  H    0.114680
    76  H    0.132902
    77  H    0.113113
    78  H    0.130750
    79  H    0.093814
    80  H    0.115413
    81  H    0.080038
    82  H    0.107062
    83  H    0.122144
    84  H    0.121291
    85  H    0.114075
    86  H    0.111714
    87  H    0.109766
    88  H    0.064595
    89  H    0.110630
    90  H    0.114948
    91  H    0.094817
    92  H    0.129707
    93  H    0.156435
    94  H    0.123045
    95  H    0.145138
    96  H    0.105496
    97  H    0.142015
    98  H    0.119870
    99  H    0.145773
   100  H    0.133573
   101  H    0.095874
   102  H    0.107703
   103  H    0.104467
   104  H    0.109778
   105  H    0.059706
   106  H    0.091619
   107  H    0.103184
   108  H    0.102754
   109  H    0.093309
   110  H    0.099978
   111  H    0.069967
   112  H    0.099499
   113  H    0.110542
   114  H    0.073630
   115  H    0.095538
   116  H    0.092549
   117  H    0.079345
   118  H    0.084274
   119  H    0.101621
   120  H    0.080197
   121  H    0.083475
   122  H    0.107977
   123  H    0.100310
   124  H    0.092657
   125  H    0.085432
   126  H    0.097347
   127  H    0.100214
   128  H    0.060575
   129  H    0.075097
   130  H    0.082956
   131  H    0.035893
   132  H    0.109565
   133  H    0.077783
   134  H    0.113644
   135  H    0.092914
   136  H    0.100951
   137  H    0.108047
 Sum of Mulliken charges =   0.00000

 Dipole moment (field-independent basis, Debye):
    X=              1.1185    Y=              4.0783    Z=             -0.6537  Tot=              4.2791
 Quadrupole moment (field-independent basis, Debye-Ang):
   XX=           -353.3077   YY=           -388.0857   ZZ=           -399.5389
   XY=            -20.9352   XZ=             10.4975   YZ=              0.6788

 Normal termination of Gaussian 09 at Wed Jun 26 21:31:59 2019.
