 Gaussian 09, Revision D.01,
 Gaussian 09:  ES64L-G09RevD.01 24-Apr-2013

 -------------------------------------
 # td=(NStates=1) CAM-B3LYP/6-31G(d,p)
 -------------------------------------

 --
 TD
 --
 Symbolic Z-matrix:
 Charge =  0 Multiplicity = 1

                         Standard orientation:
 ---------------------------------------------------------------------
 Center     Atomic      Atomic             Coordinates (Angstroms)
 Number     Number       Type             X           Y           Z
 ---------------------------------------------------------------------
      1         12           0       -7.181162    0.682155    0.129750
      2          6           0       -4.888233   -2.024481    0.421177
      3          6           0       -4.900858    2.809007    1.167917
      4          6           0       -9.432010    3.070255   -0.410985
      5          6           0       -9.462289   -1.728275   -0.934061
      6          7           0       -5.158167    0.493916    0.607872
      7          6           0       -4.396843   -0.666212    0.747028
      8          6           0       -2.920338   -0.473108    1.256950
      9          6           0       -3.092694    1.077620    1.702943
     10          6           0       -4.417866    1.490911    1.075706
     11          6           0       -3.115843    1.401476    3.181336
     12          6           0       -1.956126   -0.540841    0.075497
     13          6           0       -0.493122   -0.294127    0.468896
     14          6           0        0.503912   -0.576334   -0.516965
     15          8           0        0.240173   -0.993386   -1.628764
     16          8           0        1.809557   -0.325962   -0.141562
     17          7           0       -7.121282    2.659438    0.372508
     18          6           0       -6.155567    3.377875    0.796845
     19          6           0       -6.526783    4.766224    0.935937
     20          6           0       -7.780031    4.812318    0.452474
     21          6           0       -8.170840    3.498322    0.036791
     22          6           0       -5.674094    5.891875    1.387132
     23          6           0       -8.689617    5.931031    0.430461
     24          6           0       -8.367137    7.168912    0.099467
     25          7           0       -9.027442    0.585044   -0.622868
     26          6           0       -9.798760    1.721367   -0.752248
     27          6           0      -11.252752    1.369253   -1.072893
     28          6           0      -11.169526    0.013191   -1.248047
     29          6           0       -9.848340   -0.421269   -0.952661
     30          6           0      -12.339144    2.316896   -1.429798
     31          6           0      -12.336248   -0.825468   -1.841978
     32          6           0      -12.208620   -1.147763   -3.356351
     33          7           0       -7.153859   -1.461235   -0.241431
     34          6           0       -8.120637   -2.320292   -0.624872
     35          6           0       -7.760572   -3.745400   -0.399769
     36          6           0       -6.410275   -3.580582   -0.084201
     37          6           0       -6.168041   -2.177210    0.121838
     38          6           0       -8.589694   -4.956770   -0.741074
     39          6           0       -5.289920   -4.363652    0.238054
     40          8           0       -5.157282   -5.533797    0.292471
     41          6           0       -4.073737   -3.271967    0.544211
     42          6           0       -3.497243   -3.654009    1.917893
     43          8           0       -3.550030   -3.019536    3.007232
     44          8           0       -2.720601   -4.652867    1.754120
     45          6           0       -2.133414   -5.187570    2.936310
     46          6           0        2.845635   -0.634778   -1.129389
     47          6           0        4.244446   -0.443023   -0.503613
     48          6           0        5.138329    0.406576   -0.936258
     49          6           0        5.038625    1.330842   -2.070973
     50          6           0        6.439504    0.362641   -0.219343
     51          6           0        7.593557   -0.110559   -0.947505
     52          6           0        8.937874   -0.173574   -0.120798
     53          6           0       10.193579   -0.568183   -0.805755
     54          6           0       10.161610   -2.045815   -1.290388
     55          6           0       11.468108   -0.337251    0.042477
     56          6           0       12.834623   -0.471803   -0.763003
     57          6           0       13.960923   -0.066406    0.132640
     58          6           0       15.314207   -0.224749   -0.648045
     59          6           0       15.552258   -1.738318   -0.978709
     60          6           0       16.369962    0.404433    0.311948
     61          6           0       17.765139    0.648567   -0.375688
     62          6           0       18.702771    1.228741    0.719325
     63          6           0       20.126324    1.427439    0.277912
     64          6           0       20.352727    2.292416   -0.961284
     65          6           0       21.272978    1.685197    1.411919
     66          1           0       -4.116372    3.371922    1.752607
     67          1           0       -9.994885    3.917470   -0.681592
     68          1           0      -10.188785   -2.444743   -1.155127
     69          1           0       -2.801884   -1.030040    1.999086
     70          1           0       -2.297439    1.839813    1.473781
     71          1           0       -2.261809    1.067176    3.863069
     72          1           0       -3.307630    2.440142    3.339893
     73          1           0       -3.583146    0.815947    3.675752
     74          1           0       -2.027155   -1.517719   -0.427491
     75          1           0       -2.217212    0.243979   -0.681489
     76          1           0       -0.408819    0.632233    1.122458
     77          1           0       -0.269320   -1.066043    1.222574
     78          1           0       -4.928355    6.324572    0.723681
     79          1           0       -6.559775    6.882453    1.576330
     80          1           0       -5.175927    5.827121    2.283203
     81          1           0       -9.707912    5.759397    0.724042
     82          1           0       -9.136060    7.879297   -0.224532
     83          1           0       -7.339425    7.581926   -0.160944
     84          1           0      -12.223676    2.955750   -2.338802
     85          1           0      -13.209239    1.659867   -1.545609
     86          1           0      -12.505014    3.027478   -0.526593
     87          1           0      -12.267187   -1.816238   -1.239293
     88          1           0      -13.319678   -0.469382   -1.667770
     89          1           0      -13.086088   -1.667597   -3.533271
     90          1           0      -11.977228   -0.367240   -4.046740
     91          1           0      -11.188763   -1.894615   -3.313791
     92          1           0       -8.990336   -4.654378   -1.823767
     93          1           0       -7.878943   -5.617743   -0.747817
     94          1           0       -9.507604   -5.232096    0.090794
     95          1           0       -3.151257   -3.525557   -0.031610
     96          1           0       -1.722762   -4.224309    3.383750
     97          1           0       -2.906508   -5.621262    3.663856
     98          1           0       -1.454361   -5.756605    2.566908
     99          1           0        2.797988   -1.633923   -1.345229
    100          1           0        2.628007    0.023816   -1.967922
    101          1           0        4.133334   -1.114084    0.426733
    102          1           0        4.053034    1.492754   -2.301389
    103          1           0        5.375076    2.451959   -1.779856
    104          1           0        5.501893    1.099799   -2.920334
    105          1           0        6.679145    1.360399    0.204430
    106          1           0        6.254178   -0.165210    0.734747
    107          1           0        7.299452   -1.183917   -1.123683
    108          1           0        7.902283    0.505563   -1.892194
    109          1           0        8.985902    0.923377    0.284274
    110          1           0        8.854958   -0.731169    0.703054
    111          1           0       10.404726   -0.093142   -1.818652
    112          1           0        9.183422   -2.296037   -1.803371
    113          1           0       10.958725   -2.367598   -1.904225
    114          1           0       10.172078   -2.932060   -0.612477
    115          1           0       11.483965    0.663830    0.583844
    116          1           0       11.512661   -1.119505    0.764904
    117          1           0       12.797197   -1.502998   -1.052547
    118          1           0       12.921083    0.198138   -1.750769
    119          1           0       13.609729    0.850310    0.467044
    120          1           0       14.141592   -0.827608    0.825325
    121          1           0       15.232739    0.419504   -1.529476
    122          1           0       15.606849   -2.288384    0.018631
    123          1           0       14.966215   -2.255043   -1.717379
    124          1           0       16.466679   -1.978884   -1.476187
    125          1           0       15.904744    1.318428    0.608076
    126          1           0       16.483435    0.024440    1.329251
    127          1           0       18.247567   -0.271777   -0.900768
    128          1           0       17.536696    1.421535   -1.350671
    129          1           0       18.571463    2.204224    1.029372
    130          1           0       18.716669    0.628872    1.710234
    131          1           0       20.289314    0.367955   -0.039611
    132          1           0       20.023884    3.383380   -0.835481
    133          1           0       21.481653    2.448266   -1.343567
    134          1           0       19.955320    2.031210   -1.930197
    135          1           0       21.199195    0.884703    2.250180
    136          1           0       22.367000    1.615118    1.011265
    137          1           0       21.156105    2.799590    1.844943
 ---------------------------------------------------------------------

 SCF Done:  E(RCAM-B3LYP) =  -2932.61134318     A.U. after   18 cycles

 Excitation energies and oscillator strengths:

 Excited State   1:      Singlet-A      1.9772 eV  627.08 nm  f=0.2913  <S**2>=0.000
     240 -> 243        0.23309
     241 -> 242        0.66238
 This state for optimization and/or second-order correction.
 Total Energy, E(TD-HF/TD-KS) =  -2932.53868413
 Copying the excited state density for this state as the 1-particle RhoCI density.

 The electronic state is 1-A.
 Alpha  occ. eigenvalues --  -46.85026 -19.27047 -19.24830 -19.20343 -19.20011
 Alpha  occ. eigenvalues --  -19.19565 -14.42317 -14.39902 -14.39147 -14.38884
 Alpha  occ. eigenvalues --  -10.38723 -10.38578 -10.34273 -10.31280 -10.30826
 Alpha  occ. eigenvalues --  -10.30475 -10.30284 -10.29980 -10.29409 -10.29334
 Alpha  occ. eigenvalues --  -10.28963 -10.28567 -10.28295 -10.28208 -10.27984
 Alpha  occ. eigenvalues --  -10.27845 -10.27547 -10.27424 -10.27330 -10.27120
 Alpha  occ. eigenvalues --  -10.27107 -10.27072 -10.26974 -10.26910 -10.26872
 Alpha  occ. eigenvalues --  -10.26848 -10.26759 -10.26685 -10.26666 -10.26563
 Alpha  occ. eigenvalues --  -10.26539 -10.26435 -10.26362 -10.26352 -10.26343
 Alpha  occ. eigenvalues --  -10.26341 -10.26322 -10.26178 -10.26109 -10.26079
 Alpha  occ. eigenvalues --  -10.26071 -10.25668 -10.25450 -10.25051 -10.24962
 Alpha  occ. eigenvalues --  -10.24948 -10.24945 -10.24769 -10.24768 -10.24736
 Alpha  occ. eigenvalues --  -10.24718 -10.24328 -10.24203 -10.23515 -10.23273
 Alpha  occ. eigenvalues --   -3.14114  -1.88806  -1.88381  -1.88276  -1.20929
 Alpha  occ. eigenvalues --   -1.16330  -1.13012  -1.07799  -1.06616  -1.06212
 Alpha  occ. eigenvalues --   -1.05924  -1.03905  -1.03512  -0.92667  -0.92261
 Alpha  occ. eigenvalues --   -0.90494  -0.90406  -0.90243  -0.89120  -0.88658
 Alpha  occ. eigenvalues --   -0.88209  -0.88042  -0.87631  -0.87220  -0.85957
 Alpha  occ. eigenvalues --   -0.85186  -0.84777  -0.84050  -0.83163  -0.82702
 Alpha  occ. eigenvalues --   -0.82273  -0.81359  -0.80298  -0.79612  -0.79132
 Alpha  occ. eigenvalues --   -0.78124  -0.77563  -0.76987  -0.76430  -0.75635
 Alpha  occ. eigenvalues --   -0.75195  -0.74700  -0.74067  -0.73603  -0.72205
 Alpha  occ. eigenvalues --   -0.71798  -0.70669  -0.69381  -0.68812  -0.68562
 Alpha  occ. eigenvalues --   -0.67582  -0.66795  -0.66099  -0.65199  -0.64203
 Alpha  occ. eigenvalues --   -0.63887  -0.63548  -0.62955  -0.62450  -0.62032
 Alpha  occ. eigenvalues --   -0.61660  -0.60813  -0.60713  -0.60094  -0.59791
 Alpha  occ. eigenvalues --   -0.58892  -0.58658  -0.57890  -0.57211  -0.57034
 Alpha  occ. eigenvalues --   -0.56811  -0.56722  -0.56624  -0.55801  -0.55139
 Alpha  occ. eigenvalues --   -0.54990  -0.54318  -0.54273  -0.53154  -0.53034
 Alpha  occ. eigenvalues --   -0.52624  -0.52319  -0.52219  -0.52084  -0.51675
 Alpha  occ. eigenvalues --   -0.51411  -0.51129  -0.51010  -0.51005  -0.50625
 Alpha  occ. eigenvalues --   -0.50513  -0.50123  -0.49969  -0.49802  -0.49467
 Alpha  occ. eigenvalues --   -0.49004  -0.48976  -0.48767  -0.48306  -0.48177
 Alpha  occ. eigenvalues --   -0.47966  -0.47856  -0.47578  -0.47326  -0.47261
 Alpha  occ. eigenvalues --   -0.46943  -0.46528  -0.46473  -0.46204  -0.45939
 Alpha  occ. eigenvalues --   -0.45776  -0.45456  -0.45279  -0.45257  -0.45129
 Alpha  occ. eigenvalues --   -0.45055  -0.44886  -0.44809  -0.44425  -0.44377
 Alpha  occ. eigenvalues --   -0.43856  -0.43748  -0.43674  -0.43501  -0.43299
 Alpha  occ. eigenvalues --   -0.43079  -0.42999  -0.42729  -0.42661  -0.42492
 Alpha  occ. eigenvalues --   -0.42255  -0.42167  -0.41682  -0.41474  -0.41374
 Alpha  occ. eigenvalues --   -0.41243  -0.40989  -0.40768  -0.40694  -0.40049
 Alpha  occ. eigenvalues --   -0.39806  -0.39636  -0.39349  -0.38936  -0.38774
 Alpha  occ. eigenvalues --   -0.38626  -0.38257  -0.37985  -0.37852  -0.37568
 Alpha  occ. eigenvalues --   -0.37360  -0.37118  -0.37013  -0.36650  -0.36392
 Alpha  occ. eigenvalues --   -0.36198  -0.36120  -0.35907  -0.35589  -0.35428
 Alpha  occ. eigenvalues --   -0.35084  -0.34997  -0.33999  -0.33485  -0.33146
 Alpha  occ. eigenvalues --   -0.32994  -0.32575  -0.31631  -0.30739  -0.30483
 Alpha  occ. eigenvalues --   -0.29807  -0.29138  -0.28931  -0.28401  -0.22901
 Alpha  occ. eigenvalues --   -0.20307
 Alpha virt. eigenvalues --   -0.06140  -0.02476   0.01741   0.04261   0.05120
 Alpha virt. eigenvalues --    0.06183   0.06482   0.06657   0.06945   0.07246
 Alpha virt. eigenvalues --    0.08386   0.10465   0.11193   0.11784   0.11986

 Mulliken charges:
               1
     1  Mg   0.847634
     2  C    0.062826
     3  C   -0.232522
     4  C   -0.165916
     5  C   -0.201868
     6  N   -0.627246
     7  C    0.220045
     8  C   -0.094088
     9  C   -0.179153
    10  C    0.381364
    11  C   -0.294091
    12  C   -0.159216
    13  C   -0.280984
    14  C    0.625437
    15  O   -0.481152
    16  O   -0.517659
    17  N   -0.716809
    18  C    0.332974
    19  C    0.066371
    20  C    0.011840
    21  C    0.268852
    22  C   -0.374804
    23  C   -0.101684
    24  C   -0.244902
    25  N   -0.690982
    26  C    0.252993
    27  C    0.020339
    28  C    0.024793
    29  C    0.355122
    30  C   -0.366279
    31  C   -0.251153
    32  C   -0.280856
    33  N   -0.666010
    34  C    0.210594
    35  C    0.018154
    36  C   -0.022380
    37  C    0.362105
    38  C   -0.342314
    39  C    0.350696
    40  O   -0.439540
    41  C   -0.347687
    42  C    0.598261
    43  O   -0.530829
    44  O   -0.401916
    45  C   -0.073564
    46  C    0.025691
    47  C   -0.142506
    48  C    0.132012
    49  C   -0.360610
    50  C   -0.226397
    51  C   -0.163061
    52  C   -0.162569
    53  C   -0.047983
    54  C   -0.342108
    55  C   -0.184487
    56  C   -0.184964
    57  C   -0.156806
    58  C   -0.075193
    59  C   -0.320874
    60  C   -0.175938
    61  C   -0.164955
    62  C   -0.164672
    63  C   -0.058581
    64  C   -0.311936
    65  C   -0.306616
    66  H    0.063749
    67  H    0.092054
    68  H    0.074616
    69  H    0.112343
    70  H    0.106843
    71  H    0.081667
    72  H    0.112587
    73  H    0.127549
    74  H    0.121830
    75  H    0.119591
    76  H    0.139189
    77  H    0.139899
    78  H    0.128906
    79  H    0.069430
    80  H    0.125578
    81  H    0.108964
    82  H    0.101451
    83  H    0.110922
    84  H    0.129306
    85  H    0.113500
    86  H    0.109204
    87  H    0.094925
    88  H    0.109163
    89  H    0.117615
    90  H    0.123252
    91  H    0.072228
    92  H    0.117868
    93  H    0.156103
    94  H    0.106429
    95  H    0.165230
    96  H    0.130742
    97  H    0.135490
    98  H    0.127889
    99  H    0.127555
   100  H    0.113765
   101  H    0.102279
   102  H    0.122432
   103  H    0.094282
   104  H    0.139754
   105  H    0.083058
   106  H    0.098256
   107  H    0.092695
   108  H    0.087909
   109  H    0.068853
   110  H    0.103158
   111  H    0.083381
   112  H    0.095432
   113  H    0.111000
   114  H    0.087818
   115  H    0.074081
   116  H    0.100425
   117  H    0.102758
   118  H    0.063173
   119  H    0.097773
   120  H    0.097684
   121  H    0.083579
   122  H    0.095526
   123  H    0.109547
   124  H    0.103248
   125  H    0.103562
   126  H    0.089986
   127  H    0.093015
   128  H    0.067438
   129  H    0.104915
   130  H    0.084783
   131  H    0.080560
   132  H    0.086352
   133  H    0.079471
   134  H    0.112286
   135  H    0.093867
   136  H    0.102559
   137  H    0.083430
 Sum of Mulliken charges =   0.00000

 Dipole moment (field-independent basis, Debye):
    X=              0.0741    Y=              3.2525    Z=              0.6396  Tot=              3.3157
 Quadrupole moment (field-independent basis, Debye-Ang):
   XX=           -343.6951   YY=           -388.4689   ZZ=           -396.7745
   XY=            -27.1982   XZ=              7.9760   YZ=             -6.2871

 Normal termination of Gaussian 09 at Sun Jun 30 01:34:16 2019.
