 Gaussian 09, Revision D.01,
 Gaussian 09:  ES64L-G09RevD.01 24-Apr-2013

 -------------------------------------
 # td=(NStates=1) CAM-B3LYP/6-31G(d,p)
 -------------------------------------

 --
 TD
 --
 Symbolic Z-matrix:
 Charge =  0 Multiplicity = 1

                         Standard orientation:
 ---------------------------------------------------------------------
 Center     Atomic      Atomic             Coordinates (Angstroms)
 Number     Number       Type             X           Y           Z
 ---------------------------------------------------------------------
      1         12           0       -7.168075    0.640882    0.190576
      2          6           0       -4.824650   -1.958062    0.373320
      3          6           0       -4.806630    2.797722    1.286666
      4          6           0       -9.440098    3.144043   -0.395818
      5          6           0       -9.619126   -1.767126   -0.818869
      6          7           0       -5.112956    0.439192    0.728717
      7          6           0       -4.366711   -0.655488    0.814905
      8          6           0       -2.935714   -0.342513    1.123550
      9          6           0       -3.107490    1.087924    1.710954
     10          6           0       -4.403579    1.487522    1.071691
     11          6           0       -3.036839    1.281400    3.200357
     12          6           0       -1.894008   -0.617036    0.023576
     13          6           0       -0.398346   -0.691369    0.593356
     14          6           0        0.647525   -0.892191   -0.530793
     15          8           0        0.273419   -1.280184   -1.604409
     16          8           0        1.861250   -0.506011   -0.078591
     17          7           0       -7.073839    2.713776    0.481531
     18          6           0       -6.002384    3.365767    0.921855
     19          6           0       -6.370453    4.748334    0.857528
     20          6           0       -7.698505    4.864805    0.344910
     21          6           0       -8.227761    3.460415    0.172219
     22          6           0       -5.563210    5.895211    1.281967
     23          6           0       -8.508276    6.025501    0.242959
     24          6           0       -8.087390    7.308579   -0.028187
     25          7           0       -9.149670    0.702910   -0.492910
     26          6           0       -9.875004    1.822821   -0.575908
     27          6           0      -11.186958    1.481565   -1.000217
     28          6           0      -11.163560    0.079534   -1.196951
     29          6           0       -9.912331   -0.366201   -0.832354
     30          6           0      -12.225786    2.460792   -1.415340
     31          6           0      -12.298500   -0.772515   -1.735688
     32          6           0      -12.259088   -0.786146   -3.332555
     33          7           0       -7.270332   -1.383799   -0.083941
     34          6           0       -8.263875   -2.258849   -0.512536
     35          6           0       -7.781470   -3.606074   -0.498925
     36          6           0       -6.488106   -3.546498   -0.199022
     37          6           0       -6.189617   -2.192327    0.107037
     38          6           0       -8.620398   -4.783473   -0.801865
     39          6           0       -5.305059   -4.402159    0.066384
     40          8           0       -5.167869   -5.591209    0.047881
     41          6           0       -4.185982   -3.312886    0.437753
     42          6           0       -3.667897   -3.768795    1.823760
     43          8           0       -3.898190   -3.188401    2.865429
     44          8           0       -2.815296   -4.696715    1.633131
     45          6           0       -2.322201   -5.329082    2.823746
     46          6           0        2.858485   -0.750757   -1.100888
     47          6           0        4.118246   -0.580743   -0.427440
     48          6           0        5.200856    0.307994   -0.873038
     49          6           0        5.001841    1.159215   -2.097448
     50          6           0        6.464207    0.347543   -0.075015
     51          6           0        7.662931   -0.106921   -0.894880
     52          6           0        8.951572    0.035056   -0.103268
     53          6           0       10.235855   -0.419025   -0.989726
     54          6           0       10.031428   -1.868037   -1.319085
     55          6           0       11.391805   -0.145350   -0.062789
     56          6           0       12.812442   -0.448709   -0.852815
     57          6           0       13.976521   -0.132507    0.050108
     58          6           0       15.343307   -0.045767   -0.667595
     59          6           0       15.649598   -1.502946   -1.116891
     60          6           0       16.346643    0.407350    0.383098
     61          6           0       17.822543    0.585188   -0.193919
     62          6           0       18.805822    1.114370    0.771908
     63          6           0       20.220651    1.232409    0.306903
     64          6           0       20.498000    2.191069   -0.950119
     65          6           0       21.023105    1.825732    1.538010
     66          1           0       -4.044307    3.386165    1.727759
     67          1           0      -10.114134    3.913706   -0.438546
     68          1           0      -10.507884   -2.361002   -1.065004
     69          1           0       -2.622184   -1.056191    1.937593
     70          1           0       -2.276172    1.721641    1.189459
     71          1           0       -2.109762    0.747761    3.341133
     72          1           0       -3.014254    2.278339    3.927777
     73          1           0       -3.927678    0.633386    3.584447
     74          1           0       -2.165521   -1.593819   -0.511191
     75          1           0       -2.059158    0.242070   -0.742508
     76          1           0       -0.267079    0.275971    1.086293
     77          1           0       -0.276681   -1.394741    1.465940
     78          1           0       -5.210028    6.518736    0.356425
     79          1           0       -6.076180    6.452720    2.255148
     80          1           0       -4.666796    5.289987    1.783381
     81          1           0       -9.473300    5.782441    0.276330
     82          1           0       -8.717626    8.070452   -0.059914
     83          1           0       -7.076190    7.644412    0.078561
     84          1           0      -11.933579    3.162529   -2.338257
     85          1           0      -13.044973    2.229738   -1.926037
     86          1           0      -12.418432    3.065079   -0.565744
     87          1           0      -12.448055   -1.558414   -1.124237
     88          1           0      -13.148537   -0.335482   -1.615696
     89          1           0      -13.363241   -1.053166   -3.669736
     90          1           0      -12.177605    0.172179   -3.615043
     91          1           0      -11.532077   -1.384842   -3.635752
     92          1           0       -9.516598   -4.723198   -1.574511
     93          1           0       -7.786107   -5.704176   -0.823518
     94          1           0       -9.350648   -5.026666    0.025429
     95          1           0       -3.317799   -3.391559   -0.194228
     96          1           0       -2.083288   -4.403412    3.689854
     97          1           0       -3.046219   -6.085168    3.388174
     98          1           0       -1.463256   -5.962853    2.519640
     99          1           0        2.929081   -1.646764   -1.349084
    100          1           0        2.781153   -0.161864   -2.031417
    101          1           0        4.388280   -1.351138    0.248359
    102          1           0        4.038891    1.552761   -2.307495
    103          1           0        5.567556    2.123559   -2.234253
    104          1           0        5.229751    0.402263   -3.030345
    105          1           0        6.783013    1.415812    0.169871
    106          1           0        6.376713   -0.365971    0.967256
    107          1           0        7.356616   -1.212570   -1.140732
    108          1           0        7.699222    0.333636   -1.836319
    109          1           0        9.245142    1.074466    0.405972
    110          1           0        8.713617   -0.695032    0.652045
    111          1           0       10.075013    0.274509   -2.012735
    112          1           0        9.194896   -2.101295   -1.985528
    113          1           0       10.959589   -2.227358   -2.014259
    114          1           0        9.882026   -2.304387   -0.404527
    115          1           0       11.414680    0.828466    0.369256
    116          1           0       11.328403   -0.946176    0.727057
    117          1           0       12.749756   -1.330225   -1.356784
    118          1           0       12.808920    0.207401   -1.776648
    119          1           0       13.921358    0.910525    0.428083
    120          1           0       13.921428   -0.754577    1.053403
    121          1           0       15.326486    0.771017   -1.473586
    122          1           0       15.655780   -2.140939   -0.151571
    123          1           0       14.678185   -1.945816   -1.653070
    124          1           0       16.509222   -1.587008   -1.652542
    125          1           0       16.094913    1.493310    0.849429
    126          1           0       16.383465   -0.196928    1.349566
    127          1           0       18.272139   -0.337519   -0.582836
    128          1           0       17.726699    1.288777   -1.107838
    129          1           0       18.444562    1.987051    0.800902
    130          1           0       18.787751    0.588190    1.795735
    131          1           0       20.727761    0.050112   -0.123128
    132          1           0       20.326474    3.324618   -0.795581
    133          1           0       21.499729    1.886230   -1.397540
    134          1           0       19.785208    1.814888   -1.697131
    135          1           0       20.857959    0.962076    2.383043
    136          1           0       22.080951    1.883635    1.317828
    137          1           0       20.792641    2.874821    1.864042
 ---------------------------------------------------------------------

 SCF Done:  E(RCAM-B3LYP) =  -2932.57173617     A.U. after   18 cycles

 Excitation energies and oscillator strengths:

 Excited State   1:      Singlet-A      2.0820 eV  595.52 nm  f=0.2017  <S**2>=0.000
     240 -> 242       -0.13009
     240 -> 243        0.27926
     241 -> 242        0.62205
     241 -> 243        0.10691
 This state for optimization and/or second-order correction.
 Total Energy, E(TD-HF/TD-KS) =  -2932.49522562
 Copying the excited state density for this state as the 1-particle RhoCI density.

 The electronic state is 1-A.
 Alpha  occ. eigenvalues --  -46.84451 -19.28133 -19.27602 -19.21793 -19.21424
 Alpha  occ. eigenvalues --  -19.20259 -14.41811 -14.39304 -14.38678 -14.38042
 Alpha  occ. eigenvalues --  -10.39771 -10.38892 -10.35735 -10.34213 -10.30993
 Alpha  occ. eigenvalues --  -10.29985 -10.29984 -10.29448 -10.29313 -10.29298
 Alpha  occ. eigenvalues --  -10.29197 -10.28699 -10.28542 -10.28515 -10.28299
 Alpha  occ. eigenvalues --  -10.28017 -10.28014 -10.28003 -10.27904 -10.27784
 Alpha  occ. eigenvalues --  -10.27780 -10.27763 -10.27727 -10.27592 -10.27452
 Alpha  occ. eigenvalues --  -10.27385 -10.27364 -10.27294 -10.26785 -10.26626
 Alpha  occ. eigenvalues --  -10.26599 -10.26507 -10.26083 -10.26041 -10.26016
 Alpha  occ. eigenvalues --  -10.25846 -10.25844 -10.25817 -10.25804 -10.25752
 Alpha  occ. eigenvalues --  -10.25578 -10.25573 -10.25149 -10.25140 -10.25060
 Alpha  occ. eigenvalues --  -10.24977 -10.24875 -10.24843 -10.24702 -10.24628
 Alpha  occ. eigenvalues --  -10.24524 -10.24499 -10.24338 -10.23664 -10.23205
 Alpha  occ. eigenvalues --   -3.13301  -1.88035  -1.87539  -1.87450  -1.21459
 Alpha  occ. eigenvalues --   -1.18904  -1.12750  -1.11051  -1.09478  -1.06681
 Alpha  occ. eigenvalues --   -1.03820  -1.03183  -1.02270  -0.92073  -0.91336
 Alpha  occ. eigenvalues --   -0.90523  -0.89857  -0.89614  -0.89441  -0.88413
 Alpha  occ. eigenvalues --   -0.88340  -0.87906  -0.87548  -0.86931  -0.86544
 Alpha  occ. eigenvalues --   -0.85028  -0.83784  -0.83380  -0.82790  -0.82480
 Alpha  occ. eigenvalues --   -0.81749  -0.81585  -0.80288  -0.79942  -0.77919
 Alpha  occ. eigenvalues --   -0.77425  -0.76411  -0.75930  -0.75767  -0.74984
 Alpha  occ. eigenvalues --   -0.74868  -0.74446  -0.74174  -0.72395  -0.72117
 Alpha  occ. eigenvalues --   -0.71608  -0.71109  -0.70449  -0.69059  -0.68444
 Alpha  occ. eigenvalues --   -0.67611  -0.65776  -0.65565  -0.65350  -0.64798
 Alpha  occ. eigenvalues --   -0.64257  -0.63869  -0.62919  -0.62723  -0.62075
 Alpha  occ. eigenvalues --   -0.61132  -0.61079  -0.60689  -0.60045  -0.59712
 Alpha  occ. eigenvalues --   -0.58487  -0.58202  -0.57666  -0.57486  -0.56814
 Alpha  occ. eigenvalues --   -0.56715  -0.55931  -0.55205  -0.55082  -0.54909
 Alpha  occ. eigenvalues --   -0.54704  -0.54427  -0.54023  -0.53696  -0.53621
 Alpha  occ. eigenvalues --   -0.53161  -0.52987  -0.52776  -0.51993  -0.51475
 Alpha  occ. eigenvalues --   -0.51328  -0.50947  -0.50902  -0.50736  -0.50388
 Alpha  occ. eigenvalues --   -0.50171  -0.49855  -0.49685  -0.49383  -0.49257
 Alpha  occ. eigenvalues --   -0.49069  -0.48817  -0.48741  -0.48444  -0.48336
 Alpha  occ. eigenvalues --   -0.48038  -0.47786  -0.47592  -0.47325  -0.47180
 Alpha  occ. eigenvalues --   -0.46803  -0.46660  -0.46596  -0.46137  -0.46000
 Alpha  occ. eigenvalues --   -0.45775  -0.45727  -0.45520  -0.45474  -0.45209
 Alpha  occ. eigenvalues --   -0.44965  -0.44842  -0.44460  -0.44454  -0.44188
 Alpha  occ. eigenvalues --   -0.43858  -0.43692  -0.43363  -0.43155  -0.43083
 Alpha  occ. eigenvalues --   -0.42929  -0.42776  -0.42453  -0.42018  -0.41993
 Alpha  occ. eigenvalues --   -0.41938  -0.41557  -0.41421  -0.41395  -0.41227
 Alpha  occ. eigenvalues --   -0.40937  -0.40884  -0.40831  -0.40733  -0.40171
 Alpha  occ. eigenvalues --   -0.40107  -0.39859  -0.39715  -0.39637  -0.39024
 Alpha  occ. eigenvalues --   -0.38693  -0.38672  -0.38279  -0.37968  -0.37784
 Alpha  occ. eigenvalues --   -0.37653  -0.37434  -0.37334  -0.36809  -0.36778
 Alpha  occ. eigenvalues --   -0.36454  -0.36260  -0.35868  -0.35614  -0.35611
 Alpha  occ. eigenvalues --   -0.35427  -0.35034  -0.34592  -0.34174  -0.33522
 Alpha  occ. eigenvalues --   -0.32053  -0.32003  -0.31753  -0.30674  -0.30124
 Alpha  occ. eigenvalues --   -0.29659  -0.27699  -0.26832  -0.25593  -0.22832
 Alpha  occ. eigenvalues --   -0.20972
 Alpha virt. eigenvalues --   -0.05979  -0.03591   0.01352   0.03406   0.04151
 Alpha virt. eigenvalues --    0.06060   0.06444   0.06541   0.06989   0.07856
 Alpha virt. eigenvalues --    0.08678   0.10762   0.11233   0.11327   0.11797

 Mulliken charges:
               1
     1  Mg   0.811895
     2  C    0.048726
     3  C   -0.188023
     4  C   -0.116256
     5  C   -0.160259
     6  N   -0.609730
     7  C    0.313245
     8  C   -0.175973
     9  C   -0.165651
    10  C    0.336205
    11  C   -0.284277
    12  C   -0.160117
    13  C   -0.286771
    14  C    0.627897
    15  O   -0.455731
    16  O   -0.462378
    17  N   -0.754721
    18  C    0.406731
    19  C   -0.021401
    20  C    0.007382
    21  C    0.284762
    22  C   -0.366257
    23  C   -0.070251
    24  C   -0.244397
    25  N   -0.722627
    26  C    0.311911
    27  C   -0.008711
    28  C   -0.032538
    29  C    0.320242
    30  C   -0.360863
    31  C   -0.230190
    32  C   -0.305017
    33  N   -0.706899
    34  C    0.240459
    35  C    0.064532
    36  C   -0.003733
    37  C    0.282600
    38  C   -0.400900
    39  C    0.391298
    40  O   -0.442514
    41  C   -0.341471
    42  C    0.608243
    43  O   -0.487419
    44  O   -0.386692
    45  C   -0.098350
    46  C    0.030974
    47  C   -0.162511
    48  C    0.120482
    49  C   -0.373697
    50  C   -0.216266
    51  C   -0.187706
    52  C   -0.173097
    53  C   -0.056575
    54  C   -0.289597
    55  C   -0.167587
    56  C   -0.192089
    57  C   -0.160943
    58  C   -0.057699
    59  C   -0.291944
    60  C   -0.167762
    61  C   -0.201720
    62  C   -0.120654
    63  C   -0.041994
    64  C   -0.319190
    65  C   -0.296509
    66  H    0.085934
    67  H    0.089385
    68  H    0.102819
    69  H    0.115719
    70  H    0.090382
    71  H    0.114329
    72  H    0.109222
    73  H    0.116202
    74  H    0.120852
    75  H    0.101100
    76  H    0.130921
    77  H    0.130353
    78  H    0.124368
    79  H    0.112300
    80  H    0.084378
    81  H    0.078346
    82  H    0.100104
    83  H    0.099630
    84  H    0.088108
    85  H    0.119178
    86  H    0.119982
    87  H    0.103037
    88  H    0.109419
    89  H    0.078778
    90  H    0.126719
    91  H    0.125789
    92  H    0.115875
    93  H    0.129476
    94  H    0.127020
    95  H    0.157791
    96  H    0.121274
    97  H    0.127494
    98  H    0.131002
    99  H    0.134471
   100  H    0.118477
   101  H    0.091294
   102  H    0.135700
   103  H    0.112721
   104  H    0.106209
   105  H    0.101345
   106  H    0.077356
   107  H    0.084246
   108  H    0.105462
   109  H    0.076885
   110  H    0.095941
   111  H    0.055379
   112  H    0.110173
   113  H    0.077485
   114  H    0.111974
   115  H    0.101659
   116  H    0.090207
   117  H    0.106069
   118  H    0.079033
   119  H    0.085372
   120  H    0.077661
   121  H    0.086657
   122  H    0.094737
   123  H    0.081945
   124  H    0.112657
   125  H    0.061210
   126  H    0.087859
   127  H    0.087841
   128  H    0.077820
   129  H    0.108269
   130  H    0.082590
   131  H    0.025530
   132  H    0.097470
   133  H    0.105898
   134  H    0.104180
   135  H    0.076092
   136  H    0.101960
   137  H    0.104953
 Sum of Mulliken charges =   0.00000

 Dipole moment (field-independent basis, Debye):
    X=              2.8219    Y=              2.8796    Z=              0.4726  Tot=              4.0594
 Quadrupole moment (field-independent basis, Debye-Ang):
   XX=           -363.4638   YY=           -393.3501   ZZ=           -397.8918
   XY=             -8.0172   XZ=              2.3663   YZ=             -6.2110

 Normal termination of Gaussian 09 at Mon Jul  1 00:09:27 2019.
