 Gaussian 09, Revision D.01,
 Gaussian 09:  ES64L-G09RevD.01 24-Apr-2013

 -------------------------------------
 # td=(NStates=1) CAM-B3LYP/6-31G(d,p)
 -------------------------------------

 --
 TD
 --
 Symbolic Z-matrix:
 Charge =  0 Multiplicity = 1

                         Standard orientation:
 ---------------------------------------------------------------------
 Center     Atomic      Atomic             Coordinates (Angstroms)
 Number     Number       Type             X           Y           Z
 ---------------------------------------------------------------------
      1         12           0       -7.134972    0.607672    0.048051
      2          6           0       -4.825638   -2.017875    0.544295
      3          6           0       -4.857925    2.877445    1.221723
      4          6           0       -9.411882    3.098965   -0.288091
      5          6           0       -9.517733   -1.778812   -0.919381
      6          7           0       -5.119158    0.428746    0.723507
      7          6           0       -4.310915   -0.742954    0.795573
      8          6           0       -2.910124   -0.364291    1.255700
      9          6           0       -3.067399    1.029679    1.692511
     10          6           0       -4.456792    1.557178    1.147307
     11          6           0       -2.931524    1.276725    3.287535
     12          6           0       -1.933358   -0.567531    0.087189
     13          6           0       -0.415209   -0.425680    0.561464
     14          6           0        0.602097   -0.642794   -0.577551
     15          8           0        0.290421   -1.089175   -1.730492
     16          8           0        1.819659   -0.328263   -0.125504
     17          7           0       -7.083972    2.564564    0.323442
     18          6           0       -6.104768    3.339580    0.831231
     19          6           0       -6.453682    4.752981    0.942732
     20          6           0       -7.744321    4.838178    0.495872
     21          6           0       -8.172953    3.455961    0.115802
     22          6           0       -5.539742    5.826244    1.481078
     23          6           0       -8.602006    5.948401    0.338676
     24          6           0       -8.158577    7.205012    0.101408
     25          7           0       -9.067136    0.673901   -0.491862
     26          6           0       -9.826916    1.778902   -0.785146
     27          6           0      -11.163306    1.423165   -1.204523
     28          6           0      -11.199852    0.013916   -1.419298
     29          6           0       -9.875204   -0.448707   -0.990892
     30          6           0      -12.238343    2.426841   -1.605779
     31          6           0      -12.251202   -0.742691   -1.835611
     32          6           0      -12.119186   -1.143983   -3.342800
     33          7           0       -7.223089   -1.364601   -0.122334
     34          6           0       -8.145798   -2.256802   -0.552850
     35          6           0       -7.783588   -3.609121   -0.569724
     36          6           0       -6.430125   -3.646449   -0.241362
     37          6           0       -6.130310   -2.216953    0.073298
     38          6           0       -8.638820   -4.769894   -0.837416
     39          6           0       -5.291172   -4.373883    0.313136
     40          8           0       -5.125746   -5.572719    0.261782
     41          6           0       -4.149645   -3.358114    0.658584
     42          6           0       -3.521084   -3.641947    1.977926
     43          8           0       -3.763590   -3.080856    3.074254
     44          8           0       -2.691638   -4.687925    1.868740
     45          6           0       -2.013545   -5.034377    3.089310
     46          6           0        2.804416   -0.556498   -1.178362
     47          6           0        4.082289   -0.357006   -0.583631
     48          6           0        5.123155    0.475873   -0.839660
     49          6           0        5.034796    1.308942   -2.104984
     50          6           0        6.404036    0.421303   -0.198260
     51          6           0        7.605542   -0.264015   -0.917857
     52          6           0        8.887497   -0.137974   -0.179339
     53          6           0       10.140132   -0.675480   -0.902923
     54          6           0       10.113050   -2.113236   -1.341046
     55          6           0       11.415653   -0.330584   -0.049636
     56          6           0       12.752768   -0.626484   -0.787316
     57          6           0       13.838231   -0.164346    0.048607
     58          6           0       15.321363   -0.353879   -0.681786
     59          6           0       15.705177   -1.874472   -0.870721
     60          6           0       16.327359    0.337431    0.291113
     61          6           0       17.683227    0.585233   -0.290982
     62          6           0       18.628453    1.333391    0.696398
     63          6           0       20.071472    1.468858    0.346034
     64          6           0       20.237546    2.237158   -1.065068
     65          6           0       20.983510    2.186097    1.434827
     66          1           0       -4.142837    3.716409    1.472737
     67          1           0      -10.317762    3.852742   -0.559168
     68          1           0      -10.325543   -2.432094   -1.097690
     69          1           0       -2.729830   -1.076514    2.027267
     70          1           0       -2.357365    1.885949    1.183525
     71          1           0       -2.119742    1.030684    3.643038
     72          1           0       -2.905218    2.374126    3.472904
     73          1           0       -3.653690    0.574509    3.818068
     74          1           0       -2.426153   -1.458597   -0.223078
     75          1           0       -2.167860    0.054405   -0.737759
     76          1           0       -0.293071    0.549741    0.990295
     77          1           0       -0.293902   -1.201127    1.324544
     78          1           0       -5.105524    6.259440    0.748484
     79          1           0       -6.129927    6.470911    2.083967
     80          1           0       -4.903367    5.509281    2.359307
     81          1           0       -9.733422    5.785277    0.518976
     82          1           0       -8.854162    8.069284    0.005244
     83          1           0       -7.231738    7.370391   -0.156467
     84          1           0      -11.899171    2.935891   -2.338737
     85          1           0      -13.136421    2.044262   -1.955489
     86          1           0      -12.528178    3.248586   -0.720696
     87          1           0      -12.373783   -1.812287   -1.298742
     88          1           0      -13.042393   -0.137627   -1.527770
     89          1           0      -12.721795   -1.871136   -3.585228
     90          1           0      -12.421762   -0.173376   -3.961290
     91          1           0      -11.023828   -1.447075   -3.652915
     92          1           0       -8.815121   -4.738893   -1.961663
     93          1           0       -8.283861   -5.904416   -0.622432
     94          1           0       -9.618026   -4.811279   -0.333163
     95          1           0       -3.410419   -3.417515   -0.142694
     96          1           0       -1.340892   -4.064619    3.388592
     97          1           0       -2.707215   -5.343971    4.072180
     98          1           0       -1.322670   -5.869935    2.893155
     99          1           0        2.626493   -1.634523   -1.555566
    100          1           0        2.482652    0.132016   -2.058944
    101          1           0        4.386194   -1.084043    0.203510
    102          1           0        4.108551    1.499087   -2.530008
    103          1           0        5.171580    2.327650   -1.804603
    104          1           0        5.883119    1.233978   -2.945919
    105          1           0        6.571486    1.630697   -0.164172
    106          1           0        6.078677   -0.044159    0.988883
    107          1           0        7.384578   -1.474411   -1.150039
    108          1           0        7.783293    0.270004   -1.851329
    109          1           0        9.173557    1.103148    0.194783
    110          1           0        8.673085   -0.447285    0.776151
    111          1           0       10.132711   -0.229937   -1.990984
    112          1           0        9.341296   -2.154844   -2.101216
    113          1           0       11.115900   -2.313282   -1.792419
    114          1           0       10.260241   -2.842449   -0.561617
    115          1           0       11.284201    0.798149    0.137382
    116          1           0       11.475803   -0.952590    0.919260
    117          1           0       12.936050   -1.650744   -1.047342
    118          1           0       12.595159    0.039957   -1.594197
    119          1           0       13.750843    0.732436    0.552929
    120          1           0       13.999287   -0.929129    0.968894
    121          1           0       15.461237    0.179269   -1.602231
    122          1           0       15.453809   -2.561846    0.038023
    123          1           0       14.953650   -2.049421   -1.611397
    124          1           0       16.627263   -2.112642   -1.412297
    125          1           0       15.836047    1.385541    0.668481
    126          1           0       16.275784   -0.274409    1.234029
    127          1           0       17.966128   -0.420038   -0.570896
    128          1           0       17.679357    1.207429   -1.277143
    129          1           0       18.387510    2.526750    1.152739
    130          1           0       18.556837    0.863488    1.545355
    131          1           0       20.488403    0.388980   -0.063653
    132          1           0       19.731676    3.235364   -0.917734
    133          1           0       21.300730    2.281661   -1.583406
    134          1           0       20.002478    1.611593   -1.850180
    135          1           0       20.940852    1.681930    2.546407
    136          1           0       22.076779    1.834739    1.109329
    137          1           0       20.808904    3.101851    1.473710
 ---------------------------------------------------------------------

 SCF Done:  E(RCAM-B3LYP) =  -2932.53243398     A.U. after   18 cycles

 Excitation energies and oscillator strengths:

 Excited State   1:      Singlet-A      2.1153 eV  586.14 nm  f=0.2595  <S**2>=0.000
     240 -> 242       -0.18981
     240 -> 243        0.19557
     241 -> 242        0.62442
     241 -> 243        0.17051
 This state for optimization and/or second-order correction.
 Total Energy, E(TD-HF/TD-KS) =  -2932.45469924
 Copying the excited state density for this state as the 1-particle RhoCI density.

 The electronic state is 1-A.
 Alpha  occ. eigenvalues --  -46.82698 -19.27357 -19.27134 -19.20725 -19.20476
 Alpha  occ. eigenvalues --  -19.18980 -14.41156 -14.39638 -14.39594 -14.39376
 Alpha  occ. eigenvalues --  -10.39625 -10.39366 -10.34358 -10.33468 -10.32598
 Alpha  occ. eigenvalues --  -10.31270 -10.30239 -10.30195 -10.30155 -10.29959
 Alpha  occ. eigenvalues --  -10.29436 -10.28533 -10.28517 -10.28462 -10.28223
 Alpha  occ. eigenvalues --  -10.28151 -10.28038 -10.27959 -10.27950 -10.27807
 Alpha  occ. eigenvalues --  -10.27795 -10.27762 -10.27627 -10.27558 -10.27546
 Alpha  occ. eigenvalues --  -10.27138 -10.27028 -10.26884 -10.26616 -10.26537
 Alpha  occ. eigenvalues --  -10.26517 -10.26515 -10.26486 -10.26446 -10.26420
 Alpha  occ. eigenvalues --  -10.26389 -10.25975 -10.25924 -10.25841 -10.25700
 Alpha  occ. eigenvalues --  -10.25695 -10.25691 -10.25675 -10.25545 -10.25537
 Alpha  occ. eigenvalues --  -10.25512 -10.25485 -10.25424 -10.25398 -10.25334
 Alpha  occ. eigenvalues --  -10.24870 -10.24530 -10.24462 -10.24377 -10.24352
 Alpha  occ. eigenvalues --   -3.12052  -1.86730  -1.86300  -1.86262  -1.18228
 Alpha  occ. eigenvalues --   -1.18167  -1.10208  -1.07260  -1.06777  -1.03567
 Alpha  occ. eigenvalues --   -1.02885  -1.01385  -1.00555  -0.92320  -0.92092
 Alpha  occ. eigenvalues --   -0.90768  -0.90716  -0.90404  -0.89477  -0.89281
 Alpha  occ. eigenvalues --   -0.88209  -0.87858  -0.86950  -0.86351  -0.85947
 Alpha  occ. eigenvalues --   -0.84837  -0.84679  -0.83450  -0.83352  -0.82863
 Alpha  occ. eigenvalues --   -0.81724  -0.80972  -0.80479  -0.80021  -0.78969
 Alpha  occ. eigenvalues --   -0.78107  -0.77644  -0.77032  -0.75817  -0.75532
 Alpha  occ. eigenvalues --   -0.75239  -0.74809  -0.74700  -0.73229  -0.72709
 Alpha  occ. eigenvalues --   -0.71849  -0.71312  -0.70161  -0.69389  -0.68895
 Alpha  occ. eigenvalues --   -0.67086  -0.66542  -0.64977  -0.64483  -0.63957
 Alpha  occ. eigenvalues --   -0.63406  -0.63167  -0.63105  -0.62457  -0.61327
 Alpha  occ. eigenvalues --   -0.61219  -0.60320  -0.59928  -0.59743  -0.58827
 Alpha  occ. eigenvalues --   -0.57964  -0.57532  -0.57450  -0.57052  -0.56354
 Alpha  occ. eigenvalues --   -0.55824  -0.55749  -0.55257  -0.54849  -0.54501
 Alpha  occ. eigenvalues --   -0.54205  -0.54139  -0.53994  -0.53697  -0.53432
 Alpha  occ. eigenvalues --   -0.52782  -0.52535  -0.52352  -0.52096  -0.51856
 Alpha  occ. eigenvalues --   -0.51554  -0.51321  -0.51166  -0.50928  -0.50634
 Alpha  occ. eigenvalues --   -0.50599  -0.50248  -0.49951  -0.49701  -0.49287
 Alpha  occ. eigenvalues --   -0.49049  -0.48778  -0.48711  -0.48434  -0.48248
 Alpha  occ. eigenvalues --   -0.48019  -0.47927  -0.47672  -0.47582  -0.47300
 Alpha  occ. eigenvalues --   -0.47085  -0.46565  -0.46287  -0.46002  -0.45778
 Alpha  occ. eigenvalues --   -0.45454  -0.45300  -0.45248  -0.45117  -0.44984
 Alpha  occ. eigenvalues --   -0.44923  -0.44635  -0.44293  -0.44196  -0.43932
 Alpha  occ. eigenvalues --   -0.43856  -0.43590  -0.43392  -0.43257  -0.43111
 Alpha  occ. eigenvalues --   -0.42992  -0.42702  -0.42426  -0.42311  -0.42191
 Alpha  occ. eigenvalues --   -0.42154  -0.41843  -0.41443  -0.41368  -0.41299
 Alpha  occ. eigenvalues --   -0.41078  -0.40980  -0.40529  -0.40308  -0.39983
 Alpha  occ. eigenvalues --   -0.39934  -0.39493  -0.39366  -0.39314  -0.38922
 Alpha  occ. eigenvalues --   -0.38758  -0.38237  -0.38093  -0.38041  -0.37641
 Alpha  occ. eigenvalues --   -0.37545  -0.37160  -0.36937  -0.36711  -0.36429
 Alpha  occ. eigenvalues --   -0.36149  -0.36032  -0.35996  -0.35499  -0.35468
 Alpha  occ. eigenvalues --   -0.35415  -0.34784  -0.33837  -0.33571  -0.33339
 Alpha  occ. eigenvalues --   -0.33133  -0.32294  -0.31613  -0.30486  -0.29242
 Alpha  occ. eigenvalues --   -0.29139  -0.29036  -0.28378  -0.27470  -0.23470
 Alpha  occ. eigenvalues --   -0.20589
 Alpha virt. eigenvalues --   -0.05905  -0.03077   0.01741   0.04188   0.04585
 Alpha virt. eigenvalues --    0.05179   0.05646   0.06566   0.06984   0.07446
 Alpha virt. eigenvalues --    0.08324   0.10676   0.10746   0.10986   0.11571

 Mulliken charges:
               1
     1  Mg   0.808265
     2  C    0.087248
     3  C   -0.209921
     4  C   -0.203027
     5  C   -0.162119
     6  N   -0.648598
     7  C    0.233870
     8  C   -0.148477
     9  C   -0.151357
    10  C    0.363962
    11  C   -0.298512
    12  C   -0.153190
    13  C   -0.265293
    14  C    0.613458
    15  O   -0.506476
    16  O   -0.450897
    17  N   -0.723297
    18  C    0.348838
    19  C   -0.000138
    20  C    0.035986
    21  C    0.321557
    22  C   -0.365384
    23  C   -0.101491
    24  C   -0.229347
    25  N   -0.648508
    26  C    0.268013
    27  C   -0.009045
    28  C    0.105546
    29  C    0.256602
    30  C   -0.365709
    31  C   -0.291402
    32  C   -0.295242
    33  N   -0.678884
    34  C    0.263533
    35  C    0.048857
    36  C   -0.015265
    37  C    0.219911
    38  C   -0.388899
    39  C    0.376101
    40  O   -0.456612
    41  C   -0.317315
    42  C    0.630057
    43  O   -0.502430
    44  O   -0.426907
    45  C   -0.070348
    46  C   -0.009262
    47  C   -0.109882
    48  C    0.135655
    49  C   -0.372448
    50  C   -0.214978
    51  C   -0.162166
    52  C   -0.133408
    53  C   -0.056484
    54  C   -0.312012
    55  C   -0.188497
    56  C   -0.163019
    57  C   -0.170650
    58  C   -0.082782
    59  C   -0.325473
    60  C   -0.158603
    61  C   -0.184548
    62  C   -0.121503
    63  C   -0.064597
    64  C   -0.307409
    65  C   -0.284032
    66  H    0.086159
    67  H    0.088286
    68  H    0.092677
    69  H    0.128859
    70  H    0.071555
    71  H    0.121625
    72  H    0.095475
    73  H    0.121281
    74  H    0.102034
    75  H    0.117471
    76  H    0.140017
    77  H    0.139233
    78  H    0.142269
    79  H    0.134457
    80  H    0.117291
    81  H    0.100396
    82  H    0.102346
    83  H    0.100185
    84  H    0.147015
    85  H    0.115112
    86  H    0.085382
    87  H    0.091526
    88  H    0.118468
    89  H    0.121380
    90  H    0.089988
    91  H    0.110351
    92  H    0.119366
    93  H    0.129737
    94  H    0.120170
    95  H    0.180583
    96  H    0.102015
    97  H    0.122644
    98  H    0.130125
    99  H    0.138594
   100  H    0.125150
   101  H    0.079705
   102  H    0.117406
   103  H    0.110147
   104  H    0.108473
   105  H    0.085391
   106  H    0.066908
   107  H    0.087675
   108  H    0.104723
   109  H    0.029696
   110  H    0.110117
   111  H    0.068183
   112  H    0.107764
   113  H    0.097247
   114  H    0.103586
   115  H    0.089610
   116  H    0.085530
   117  H    0.105197
   118  H    0.104636
   119  H    0.105367
   120  H    0.059992
   121  H    0.090979
   122  H    0.098091
   123  H    0.110768
   124  H    0.111327
   125  H    0.054362
   126  H    0.084427
   127  H    0.101926
   128  H    0.090057
   129  H    0.035358
   130  H    0.110436
   131  H    0.051296
   132  H    0.098351
   133  H    0.071837
   134  H    0.113903
   135  H    0.073443
   136  H    0.096008
   137  H    0.119248
 Sum of Mulliken charges =   0.00000

 Dipole moment (field-independent basis, Debye):
    X=              1.1546    Y=              5.6303    Z=             -0.8162  Tot=              5.8052
 Quadrupole moment (field-independent basis, Debye-Ang):
   XX=           -338.3296   YY=           -389.8353   ZZ=           -397.5125
   XY=            -41.5034   XZ=             10.2178   YZ=             -2.0616

 Normal termination of Gaussian 09 at Thu Jun 27 01:00:19 2019.
