 Gaussian 09, Revision D.01,
 Gaussian 09:  ES64L-G09RevD.01 24-Apr-2013

 -------------------------------------
 # td=(NStates=1) CAM-B3LYP/6-31G(d,p)
 -------------------------------------

 --
 TD
 --
 Symbolic Z-matrix:
 Charge =  0 Multiplicity = 1

                         Standard orientation:
 ---------------------------------------------------------------------
 Center     Atomic      Atomic             Coordinates (Angstroms)
 Number     Number       Type             X           Y           Z
 ---------------------------------------------------------------------
      1         12           0       -7.184387    0.542849    0.106376
      2          6           0       -4.820096   -1.918297    0.497318
      3          6           0       -4.837139    2.865040    1.089287
      4          6           0       -9.427506    3.074601   -0.424852
      5          6           0       -9.547431   -1.762321   -0.786249
      6          7           0       -5.240078    0.419808    0.658493
      7          6           0       -4.307254   -0.655173    0.787729
      8          6           0       -2.940804   -0.345306    1.254295
      9          6           0       -3.112996    1.169624    1.724407
     10          6           0       -4.432075    1.477297    1.140250
     11          6           0       -3.052145    1.388970    3.216770
     12          6           0       -1.898189   -0.596253    0.222636
     13          6           0       -0.461948   -0.416274    0.709973
     14          6           0        0.496585   -0.599094   -0.517641
     15          8           0        0.198419   -1.017940   -1.548244
     16          8           0        1.797657   -0.252384   -0.154912
     17          7           0       -7.187047    2.590510    0.433499
     18          6           0       -6.156803    3.348383    0.788918
     19          6           0       -6.446980    4.763073    0.822934
     20          6           0       -7.831132    4.841106    0.465937
     21          6           0       -8.195339    3.453540    0.137641
     22          6           0       -5.546490    5.861459    1.165180
     23          6           0       -8.726993    5.957329    0.305910
     24          6           0       -8.464940    7.186248   -0.039523
     25          7           0       -9.181294    0.671610   -0.553117
     26          6           0       -9.945656    1.708710   -0.662042
     27          6           0      -11.299687    1.372225   -1.075818
     28          6           0      -11.247014   -0.003465   -1.247881
     29          6           0      -10.015915   -0.387247   -0.792632
     30          6           0      -12.345856    2.387438   -1.426946
     31          6           0      -12.425580   -0.882611   -1.663183
     32          6           0      -12.364153   -1.140007   -3.219900
     33          7           0       -7.210094   -1.378543   -0.140960
     34          6           0       -8.284395   -2.271475   -0.537207
     35          6           0       -7.825981   -3.674979   -0.552980
     36          6           0       -6.423101   -3.495704   -0.094198
     37          6           0       -6.168503   -2.075376    0.092742
     38          6           0       -8.603804   -4.896989   -0.843223
     39          6           0       -5.225434   -4.334535    0.226524
     40          8           0       -5.035052   -5.580350    0.183049
     41          6           0       -4.104260   -3.288254    0.518287
     42          6           0       -3.427660   -3.633882    1.688717
     43          8           0       -3.721123   -3.216470    2.898243
     44          8           0       -2.498005   -4.614255    1.528736
     45          6           0       -1.845980   -5.060787    2.679086
     46          6           0        2.790014   -0.504372   -1.164504
     47          6           0        4.145023   -0.379016   -0.467746
     48          6           0        5.188129    0.278127   -0.875871
     49          6           0        5.286991    1.186506   -2.193172
     50          6           0        6.474660    0.377564   -0.053428
     51          6           0        7.698642   -0.238461   -0.961105
     52          6           0        8.925092   -0.233911   -0.038021
     53          6           0       10.231067   -0.580573   -0.744801
     54          6           0       10.277906   -2.011841   -1.315987
     55          6           0       11.437940   -0.303524    0.231202
     56          6           0       12.758542   -0.568843   -0.514869
     57          6           0       13.968955   -0.175299    0.299162
     58          6           0       15.299662   -0.274263   -0.498209
     59          6           0       15.836218   -1.645959   -0.898899
     60          6           0       16.388233    0.402040    0.392099
     61          6           0       17.838137    0.442642   -0.123413
     62          6           0       18.774479    1.382981    0.616213
     63          6           0       20.196618    1.449252    0.089237
     64          6           0       20.169165    2.171143   -1.297132
     65          6           0       21.156253    2.090793    1.124986
     66          1           0       -4.025711    3.546327    1.450711
     67          1           0      -10.102996    3.973588   -0.436303
     68          1           0      -10.288299   -2.714773   -1.011700
     69          1           0       -2.751318   -1.209609    2.102399
     70          1           0       -2.143175    1.700303    1.316481
     71          1           0       -2.115259    1.007263    3.801121
     72          1           0       -3.222775    2.544126    3.485697
     73          1           0       -3.761183    0.895675    3.672972
     74          1           0       -1.896003   -1.628517   -0.231023
     75          1           0       -2.287676   -0.107573   -0.566820
     76          1           0       -0.306820    0.744750    0.745069
     77          1           0       -0.152854   -1.044090    1.529305
     78          1           0       -4.795248    6.094240    0.450119
     79          1           0       -6.172368    6.714381    1.449571
     80          1           0       -5.057244    5.463973    2.060814
     81          1           0       -9.760726    5.833419    0.532567
     82          1           0       -9.164480    8.034728   -0.055774
     83          1           0       -7.377697    7.407707   -0.542216
     84          1           0      -12.109873    3.061425   -2.198904
     85          1           0      -13.319281    1.853827   -1.801512
     86          1           0      -12.493048    2.867842   -0.521969
     87          1           0      -12.606923   -1.841178   -1.244417
     88          1           0      -13.337002   -0.564408   -1.387974
     89          1           0      -13.331385   -1.553585   -3.671841
     90          1           0      -12.138165   -0.135320   -3.631957
     91          1           0      -11.527891   -1.698291   -3.537972
     92          1           0       -8.786199   -5.240092   -1.998282
     93          1           0       -8.044760   -5.921833   -0.655593
     94          1           0       -9.665807   -4.918499   -0.321914
     95          1           0       -3.474560   -3.299403   -0.327498
     96          1           0       -1.298477   -4.261262    3.179747
     97          1           0       -2.563056   -5.181593    3.458991
     98          1           0       -1.256824   -5.935948    2.580253
     99          1           0        2.496996   -1.525535   -1.677447
    100          1           0        2.451519    0.314134   -1.857568
    101          1           0        4.296981   -1.194207    0.261087
    102          1           0        4.291979    1.312361   -2.535710
    103          1           0        5.610690    2.245482   -1.523867
    104          1           0        6.056961    0.717678   -2.877261
    105          1           0        6.758125    1.326029    0.286528
    106          1           0        6.245428   -0.207039    0.776234
    107          1           0        7.390560   -1.248795   -1.319814
    108          1           0        7.866547    0.343177   -1.832909
    109          1           0        8.720883    0.820061    0.542638
    110          1           0        8.652815   -0.890414    0.855581
    111          1           0       10.052477    0.111367   -1.472493
    112          1           0        9.355940   -2.117116   -2.000080
    113          1           0       11.109994   -2.197814   -1.962035
    114          1           0        9.952328   -2.749399   -0.403518
    115          1           0       11.176834    0.721470    0.504645
    116          1           0       11.329410   -1.196214    1.086255
    117          1           0       12.963044   -1.631942   -0.757314
    118          1           0       12.608264   -0.094033   -1.519293
    119          1           0       13.944123    0.977399    0.724083
    120          1           0       14.174596   -0.804938    1.144866
    121          1           0       15.180534    0.240291   -1.505392
    122          1           0       15.575771   -2.212484   -0.041392
    123          1           0       14.931683   -2.027780   -1.595296
    124          1           0       16.663600   -1.552483   -1.443834
    125          1           0       16.234072    1.455175    0.671072
    126          1           0       16.491762   -0.174625    1.446277
    127          1           0       18.293303   -0.414581   -0.508428
    128          1           0       17.690055    0.930440   -1.227900
    129          1           0       18.471292    2.387305    0.786030
    130          1           0       19.166910    0.718177    1.535433
    131          1           0       20.543740    0.455943   -0.102036
    132          1           0       19.772413    3.238998   -1.258623
    133          1           0       21.265711    2.308689   -1.545029
    134          1           0       19.720207    1.721732   -2.135852
    135          1           0       21.450361    1.246779    1.905427
    136          1           0       22.107383    2.251358    0.599551
    137          1           0       20.802434    3.029045    1.452263
 ---------------------------------------------------------------------

 SCF Done:  E(RCAM-B3LYP) =  -2932.64639334     A.U. after   17 cycles

 Excitation energies and oscillator strengths:

 Excited State   1:      Singlet-A      2.0888 eV  593.58 nm  f=0.1795  <S**2>=0.000
     240 -> 243        0.26579
     241 -> 242        0.64324
 This state for optimization and/or second-order correction.
 Total Energy, E(TD-HF/TD-KS) =  -2932.56963292
 Copying the excited state density for this state as the 1-particle RhoCI density.

 The electronic state is 1-A.
 Alpha  occ. eigenvalues --  -46.84148 -19.26803 -19.24735 -19.22176 -19.20419
 Alpha  occ. eigenvalues --  -19.19919 -14.42239 -14.39909 -14.39648 -14.39169
 Alpha  occ. eigenvalues --  -10.39475 -10.39042 -10.35881 -10.32375 -10.31968
 Alpha  occ. eigenvalues --  -10.30913 -10.30630 -10.30339 -10.29848 -10.29784
 Alpha  occ. eigenvalues --  -10.29658 -10.29470 -10.29433 -10.29309 -10.29158
 Alpha  occ. eigenvalues --  -10.28842 -10.28803 -10.28190 -10.28148 -10.28078
 Alpha  occ. eigenvalues --  -10.28036 -10.27975 -10.27765 -10.27435 -10.27427
 Alpha  occ. eigenvalues --  -10.27368 -10.26905 -10.26711 -10.26579 -10.26548
 Alpha  occ. eigenvalues --  -10.26516 -10.26338 -10.26220 -10.26096 -10.26079
 Alpha  occ. eigenvalues --  -10.26073 -10.25950 -10.25924 -10.25764 -10.25708
 Alpha  occ. eigenvalues --  -10.25675 -10.25660 -10.25593 -10.25576 -10.25557
 Alpha  occ. eigenvalues --  -10.25490 -10.25402 -10.25276 -10.25222 -10.25215
 Alpha  occ. eigenvalues --  -10.25190 -10.25061 -10.24924 -10.24344 -10.24188
 Alpha  occ. eigenvalues --   -3.13401  -1.88083  -1.87646  -1.87610  -1.19254
 Alpha  occ. eigenvalues --   -1.17653  -1.10794  -1.08516  -1.05454  -1.04897
 Alpha  occ. eigenvalues --   -1.04518  -1.04215  -1.02286  -0.92714  -0.91102
 Alpha  occ. eigenvalues --   -0.90783  -0.90288  -0.89902  -0.89480  -0.88930
 Alpha  occ. eigenvalues --   -0.88447  -0.88114  -0.87365  -0.87067  -0.85757
 Alpha  occ. eigenvalues --   -0.84983  -0.84357  -0.84196  -0.83073  -0.82596
 Alpha  occ. eigenvalues --   -0.81657  -0.80862  -0.80276  -0.79363  -0.78300
 Alpha  occ. eigenvalues --   -0.77865  -0.77527  -0.76854  -0.75644  -0.75459
 Alpha  occ. eigenvalues --   -0.75272  -0.75116  -0.74285  -0.73632  -0.72086
 Alpha  occ. eigenvalues --   -0.71442  -0.70720  -0.70452  -0.69567  -0.68130
 Alpha  occ. eigenvalues --   -0.67069  -0.66942  -0.64806  -0.64504  -0.64367
 Alpha  occ. eigenvalues --   -0.63784  -0.63283  -0.62927  -0.62185  -0.61819
 Alpha  occ. eigenvalues --   -0.61554  -0.61081  -0.60756  -0.59842  -0.59254
 Alpha  occ. eigenvalues --   -0.59052  -0.58522  -0.58140  -0.58112  -0.57268
 Alpha  occ. eigenvalues --   -0.56004  -0.55524  -0.55245  -0.55200  -0.54741
 Alpha  occ. eigenvalues --   -0.54500  -0.54143  -0.53895  -0.53560  -0.53182
 Alpha  occ. eigenvalues --   -0.52801  -0.52638  -0.52634  -0.52397  -0.52066
 Alpha  occ. eigenvalues --   -0.51229  -0.51002  -0.50804  -0.50590  -0.50504
 Alpha  occ. eigenvalues --   -0.50447  -0.50136  -0.49976  -0.49691  -0.49371
 Alpha  occ. eigenvalues --   -0.49063  -0.48823  -0.48676  -0.48329  -0.48290
 Alpha  occ. eigenvalues --   -0.48123  -0.48019  -0.47778  -0.47479  -0.47398
 Alpha  occ. eigenvalues --   -0.47314  -0.47089  -0.46845  -0.46660  -0.46313
 Alpha  occ. eigenvalues --   -0.46065  -0.45741  -0.45348  -0.45243  -0.45001
 Alpha  occ. eigenvalues --   -0.44766  -0.44537  -0.44299  -0.44204  -0.44041
 Alpha  occ. eigenvalues --   -0.43761  -0.43560  -0.43468  -0.43408  -0.43171
 Alpha  occ. eigenvalues --   -0.43017  -0.42811  -0.42421  -0.42103  -0.42039
 Alpha  occ. eigenvalues --   -0.41843  -0.41790  -0.41417  -0.41156  -0.41059
 Alpha  occ. eigenvalues --   -0.40978  -0.40944  -0.40713  -0.40446  -0.40413
 Alpha  occ. eigenvalues --   -0.40312  -0.40249  -0.39833  -0.39374  -0.39193
 Alpha  occ. eigenvalues --   -0.38667  -0.38553  -0.38375  -0.38151  -0.37975
 Alpha  occ. eigenvalues --   -0.37743  -0.37372  -0.37321  -0.36866  -0.36686
 Alpha  occ. eigenvalues --   -0.36619  -0.36369  -0.35652  -0.35605  -0.35291
 Alpha  occ. eigenvalues --   -0.34910  -0.34405  -0.34240  -0.33993  -0.33221
 Alpha  occ. eigenvalues --   -0.32593  -0.32352  -0.32215  -0.30525  -0.30024
 Alpha  occ. eigenvalues --   -0.29976  -0.29312  -0.28195  -0.27829  -0.23001
 Alpha  occ. eigenvalues --   -0.21618
 Alpha virt. eigenvalues --   -0.06292  -0.03666   0.01080   0.03464   0.04210
 Alpha virt. eigenvalues --    0.05803   0.06425   0.06647   0.06768   0.07690
 Alpha virt. eigenvalues --    0.08170   0.10602   0.10858   0.11599   0.11706

 Mulliken charges:
               1
     1  Mg   0.820459
     2  C   -0.002544
     3  C   -0.232753
     4  C   -0.180812
     5  C   -0.172214
     6  N   -0.655253
     7  C    0.322457
     8  C   -0.169066
     9  C   -0.154357
    10  C    0.345631
    11  C   -0.286050
    12  C   -0.168699
    13  C   -0.260723
    14  C    0.584446
    15  O   -0.416332
    16  O   -0.507210
    17  N   -0.687500
    18  C    0.337510
    19  C    0.011182
    20  C    0.025563
    21  C    0.291597
    22  C   -0.371716
    23  C   -0.082320
    24  C   -0.247859
    25  N   -0.641390
    26  C    0.300686
    27  C   -0.024026
    28  C    0.045738
    29  C    0.235116
    30  C   -0.360071
    31  C   -0.227862
    32  C   -0.323750
    33  N   -0.778169
    34  C    0.224916
    35  C    0.118979
    36  C   -0.091688
    37  C    0.438309
    38  C   -0.411313
    39  C    0.383044
    40  O   -0.487430
    41  C   -0.292108
    42  C    0.642703
    43  O   -0.537887
    44  O   -0.441222
    45  C   -0.084846
    46  C    0.002414
    47  C   -0.135116
    48  C    0.094317
    49  C   -0.321793
    50  C   -0.229334
    51  C   -0.196142
    52  C   -0.180382
    53  C   -0.068372
    54  C   -0.304299
    55  C   -0.146756
    56  C   -0.179146
    57  C   -0.160610
    58  C   -0.083093
    59  C   -0.286792
    60  C   -0.145011
    61  C   -0.186246
    62  C   -0.138917
    63  C   -0.073698
    64  C   -0.316015
    65  C   -0.307325
    66  H    0.080119
    67  H    0.080782
    68  H    0.100634
    69  H    0.125148
    70  H    0.105481
    71  H    0.101767
    72  H    0.088377
    73  H    0.141878
    74  H    0.115081
    75  H    0.124069
    76  H    0.127678
    77  H    0.149437
    78  H    0.133545
    79  H    0.125520
    80  H    0.117351
    81  H    0.102011
    82  H    0.112027
    83  H    0.087400
    84  H    0.131036
    85  H    0.099344
    86  H    0.128941
    87  H    0.101759
    88  H    0.110656
    89  H    0.091755
    90  H    0.106871
    91  H    0.119394
    92  H    0.118749
    93  H    0.151992
    94  H    0.122424
    95  H    0.180934
    96  H    0.109772
    97  H    0.140588
    98  H    0.127616
    99  H    0.119798
   100  H    0.113985
   101  H    0.093160
   102  H    0.118226
   103  H    0.080869
   104  H    0.130015
   105  H    0.114439
   106  H    0.107137
   107  H    0.101695
   108  H    0.102654
   109  H    0.066342
   110  H    0.081273
   111  H    0.095608
   112  H    0.086524
   113  H    0.119873
   114  H    0.089901
   115  H    0.102485
   116  H    0.068080
   117  H    0.100460
   118  H    0.090953
   119  H    0.070246
   120  H    0.099213
   121  H    0.074905
   122  H    0.112560
   123  H    0.065424
   124  H    0.123730
   125  H    0.091611
   126  H    0.060462
   127  H    0.100352
   128  H    0.046252
   129  H    0.094144
   130  H    0.067830
   131  H    0.090595
   132  H    0.084803
   133  H    0.082160
   134  H    0.114762
   135  H    0.093436
   136  H    0.101250
   137  H    0.113806
 Sum of Mulliken charges =   0.00000

 Dipole moment (field-independent basis, Debye):
    X=              1.6195    Y=              4.4827    Z=             -0.7787  Tot=              4.8295
 Quadrupole moment (field-independent basis, Debye-Ang):
   XX=           -342.8078   YY=           -392.7087   ZZ=           -402.5692
   XY=            -25.2673   XZ=              4.3458   YZ=              3.5421

 Normal termination of Gaussian 09 at Thu Jun 27 16:43:09 2019.
