 Gaussian 09, Revision D.01,
 Gaussian 09:  ES64L-G09RevD.01 24-Apr-2013

 -------------------------------------
 # td=(NStates=1) CAM-B3LYP/6-31G(d,p)
 -------------------------------------

 --
 TD
 --
 Symbolic Z-matrix:
 Charge =  0 Multiplicity = 1

                         Standard orientation:
 ---------------------------------------------------------------------
 Center     Atomic      Atomic             Coordinates (Angstroms)
 Number     Number       Type             X           Y           Z
 ---------------------------------------------------------------------
      1         12           0       -7.148132    0.617313    0.136350
      2          6           0       -4.855763   -1.946697    0.458560
      3          6           0       -4.773745    2.829205    1.034467
      4          6           0       -9.498768    3.074729   -0.245391
      5          6           0       -9.570852   -1.847650   -0.863505
      6          7           0       -5.118103    0.452757    0.788734
      7          6           0       -4.402103   -0.727236    0.827073
      8          6           0       -3.024516   -0.378822    1.191152
      9          6           0       -2.997748    1.121989    1.610890
     10          6           0       -4.329510    1.526340    1.068987
     11          6           0       -2.811827    1.362174    3.080803
     12          6           0       -1.964991   -0.618005    0.062267
     13          6           0       -0.477540   -0.367472    0.551443
     14          6           0        0.501584   -0.665531   -0.482803
     15          8           0        0.191327   -1.023127   -1.609302
     16          8           0        1.765396   -0.533366   -0.050386
     17          7           0       -7.052238    2.603804    0.255519
     18          6           0       -6.032909    3.391673    0.702777
     19          6           0       -6.375928    4.744167    0.779169
     20          6           0       -7.736853    4.802404    0.410611
     21          6           0       -8.094420    3.459288    0.057726
     22          6           0       -5.536020    5.857485    1.300621
     23          6           0       -8.565954    6.038950    0.249867
     24          6           0       -8.201213    7.303710    0.144095
     25          7           0       -9.226850    0.622000   -0.381882
     26          6           0       -9.879036    1.743740   -0.594755
     27          6           0      -11.160052    1.437980   -1.011129
     28          6           0      -11.269811    0.128652   -1.190901
     29          6           0       -9.919787   -0.464333   -0.773305
     30          6           0      -12.343965    2.510990   -1.221923
     31          6           0      -12.435708   -0.659966   -1.767255
     32          6           0      -12.357993   -0.858600   -3.208010
     33          7           0       -7.248762   -1.458001   -0.052553
     34          6           0       -8.345441   -2.374139   -0.403851
     35          6           0       -7.823018   -3.719459   -0.496073
     36          6           0       -6.521372   -3.624628   -0.227437
     37          6           0       -6.221052   -2.192195   -0.007329
     38          6           0       -8.561741   -4.981332   -0.891039
     39          6           0       -5.285361   -4.367736    0.146756
     40          8           0       -5.106888   -5.573323    0.103009
     41          6           0       -4.217359   -3.205398    0.582350
     42          6           0       -3.541220   -3.606229    1.860589
     43          8           0       -3.806794   -3.246313    2.966831
     44          8           0       -2.626539   -4.604007    1.675527
     45          6           0       -2.132829   -5.101021    2.876577
     46          6           0        2.748054   -0.634439   -1.150502
     47          6           0        4.125220   -0.507162   -0.523666
     48          6           0        5.148345    0.253945   -0.992591
     49          6           0        5.085811    1.067545   -2.239725
     50          6           0        6.361085    0.287343   -0.115666
     51          6           0        7.617209   -0.129441   -0.972289
     52          6           0        8.877424   -0.083605   -0.113587
     53          6           0       10.168553   -0.486946   -0.957995
     54          6           0       10.153325   -1.979482   -1.448256
     55          6           0       11.374097   -0.148068   -0.118087
     56          6           0       12.798825   -0.520012   -0.709084
     57          6           0       13.971650   -0.093367    0.268838
     58          6           0       15.352120   -0.249214   -0.424544
     59          6           0       15.649410   -1.626984   -0.742100
     60          6           0       16.420815    0.428895    0.473587
     61          6           0       17.773332    0.534738   -0.148808
     62          6           0       18.866370    1.192839    0.752234
     63          6           0       20.334046    1.371032    0.209094
     64          6           0       20.425352    2.012618   -1.233018
     65          6           0       21.082694    2.037941    1.319243
     66          1           0       -4.150566    3.614306    1.366421
     67          1           0      -10.282604    3.821697   -0.535091
     68          1           0      -10.381604   -2.433459   -1.263352
     69          1           0       -2.585063   -1.011982    2.068810
     70          1           0       -2.380450    1.714081    1.151038
     71          1           0       -1.883614    0.859365    3.508152
     72          1           0       -2.894088    2.333131    3.282658
     73          1           0       -3.673795    0.873108    3.562445
     74          1           0       -2.162534   -1.653699   -0.180224
     75          1           0       -1.970951    0.205352   -0.858196
     76          1           0       -0.243930    0.553628    1.126037
     77          1           0       -0.170327   -1.207835    1.168602
     78          1           0       -4.934293    6.223438    0.594530
     79          1           0       -6.085246    6.765078    1.570709
     80          1           0       -4.981564    5.537853    2.081866
     81          1           0       -9.590323    5.700254    0.159224
     82          1           0       -9.005181    8.126526    0.304543
     83          1           0       -7.087847    7.826501   -0.025202
     84          1           0      -12.036510    3.358586   -1.968319
     85          1           0      -12.995718    1.878949   -1.775510
     86          1           0      -12.848025    2.982073   -0.382242
     87          1           0      -12.215944   -1.630482   -1.332512
     88          1           0      -13.413739   -0.360753   -1.527753
     89          1           0      -13.083659   -1.558839   -3.513583
     90          1           0      -12.490775    0.171694   -3.812375
     91          1           0      -11.345130   -1.227475   -3.316352
     92          1           0       -9.078561   -4.703718   -1.964580
     93          1           0       -7.919769   -5.885654   -1.105461
     94          1           0       -9.450734   -5.456550   -0.321993
     95          1           0       -3.585719   -3.605999   -0.158594
     96          1           0       -1.224765   -4.311563    3.274432
     97          1           0       -2.909360   -5.439856    3.512670
     98          1           0       -1.572882   -5.961569    2.641544
     99          1           0        2.672410   -1.581893   -1.589533
    100          1           0        2.456565    0.117169   -1.999727
    101          1           0        4.162100   -1.116822    0.386787
    102          1           0        4.219867    1.241474   -2.677633
    103          1           0        5.525908    2.058294   -1.817375
    104          1           0        5.700948    0.633381   -2.909438
    105          1           0        6.484738    1.431616    0.113940
    106          1           0        6.438540   -0.249578    0.785643
    107          1           0        7.405372   -1.178272   -1.335755
    108          1           0        7.608203    0.335886   -1.832171
    109          1           0        8.792361    0.865706    0.357950
    110          1           0        8.897508   -0.874819    0.794663
    111          1           0       10.428260    0.153994   -1.860713
    112          1           0        9.156775   -2.221305   -1.811478
    113          1           0       11.059260   -2.124400   -1.929698
    114          1           0       10.002881   -2.606361   -0.599584
    115          1           0       11.455056    0.902549    0.044871
    116          1           0       11.322433   -0.679695    0.839579
    117          1           0       12.790507   -1.588998   -0.712770
    118          1           0       12.900841   -0.080306   -1.576527
    119          1           0       13.797443    1.040092    0.550977
    120          1           0       13.965523   -0.784097    1.088605
    121          1           0       15.379034    0.280253   -1.301464
    122          1           0       15.503752   -2.302911    0.005137
    123          1           0       14.721466   -1.989388   -1.301908
    124          1           0       16.757037   -1.803663   -1.245112
    125          1           0       16.154547    1.416209    0.686781
    126          1           0       16.657074   -0.137985    1.478041
    127          1           0       18.349227   -0.413567   -0.397848
    128          1           0       17.903226    1.041449   -1.034449
    129          1           0       18.492840    2.324611    0.852119
    130          1           0       18.901044    0.708788    1.833840
    131          1           0       20.695039    0.448161    0.096992
    132          1           0       20.283912    3.191000   -1.054335
    133          1           0       21.373447    1.942226   -1.800443
    134          1           0       20.035543    1.347976   -1.945019
    135          1           0       20.951488    1.569976    2.203026
    136          1           0       22.081349    2.306045    0.865275
    137          1           0       20.705478    3.039193    1.355153
 ---------------------------------------------------------------------

 SCF Done:  E(RCAM-B3LYP) =  -2932.67628159     A.U. after   15 cycles

 Excitation energies and oscillator strengths:

 Excited State   1:      Singlet-A      1.9266 eV  643.55 nm  f=0.2563  <S**2>=0.000
     240 -> 243        0.20432
     241 -> 242        0.67003
 This state for optimization and/or second-order correction.
 Total Energy, E(TD-HF/TD-KS) =  -2932.60548127
 Copying the excited state density for this state as the 1-particle RhoCI density.

 The electronic state is 1-A.
 Alpha  occ. eigenvalues --  -46.85305 -19.26054 -19.25606 -19.21500 -19.20486
 Alpha  occ. eigenvalues --  -19.19791 -14.41165 -14.40608 -14.39494 -14.39489
 Alpha  occ. eigenvalues --  -10.38711 -10.38255 -10.36488 -10.31629 -10.30887
 Alpha  occ. eigenvalues --  -10.30473 -10.30420 -10.30374 -10.30086 -10.29607
 Alpha  occ. eigenvalues --  -10.29570 -10.29432 -10.29269 -10.29151 -10.28854
 Alpha  occ. eigenvalues --  -10.28592 -10.28333 -10.28119 -10.28064 -10.27966
 Alpha  occ. eigenvalues --  -10.27612 -10.27572 -10.27391 -10.27313 -10.27000
 Alpha  occ. eigenvalues --  -10.26553 -10.26525 -10.26511 -10.26433 -10.26389
 Alpha  occ. eigenvalues --  -10.26336 -10.26139 -10.25745 -10.25709 -10.25690
 Alpha  occ. eigenvalues --  -10.25652 -10.25622 -10.25593 -10.25208 -10.25158
 Alpha  occ. eigenvalues --  -10.24988 -10.24974 -10.24953 -10.24858 -10.24842
 Alpha  occ. eigenvalues --  -10.24638 -10.24606 -10.24407 -10.24275 -10.24041
 Alpha  occ. eigenvalues --  -10.24030 -10.23925 -10.23822 -10.23752 -10.23108
 Alpha  occ. eigenvalues --   -3.14177  -1.88902  -1.88421  -1.88334  -1.18923
 Alpha  occ. eigenvalues --   -1.17615  -1.11627  -1.09539  -1.08112  -1.05415
 Alpha  occ. eigenvalues --   -1.04694  -1.04265  -1.03355  -0.93268  -0.91551
 Alpha  occ. eigenvalues --   -0.90820  -0.89874  -0.89435  -0.89212  -0.89042
 Alpha  occ. eigenvalues --   -0.88833  -0.88421  -0.88161  -0.87854  -0.86629
 Alpha  occ. eigenvalues --   -0.85293  -0.84643  -0.83925  -0.83318  -0.82868
 Alpha  occ. eigenvalues --   -0.81976  -0.81162  -0.80782  -0.80482  -0.78781
 Alpha  occ. eigenvalues --   -0.78601  -0.77030  -0.76816  -0.76624  -0.76380
 Alpha  occ. eigenvalues --   -0.75561  -0.75315  -0.74533  -0.73703  -0.72651
 Alpha  occ. eigenvalues --   -0.72058  -0.70642  -0.69384  -0.68959  -0.68231
 Alpha  occ. eigenvalues --   -0.67067  -0.66740  -0.65800  -0.65715  -0.65288
 Alpha  occ. eigenvalues --   -0.64488  -0.63903  -0.62714  -0.62477  -0.62341
 Alpha  occ. eigenvalues --   -0.61975  -0.60677  -0.60465  -0.60003  -0.59921
 Alpha  occ. eigenvalues --   -0.59293  -0.58702  -0.58166  -0.57561  -0.56954
 Alpha  occ. eigenvalues --   -0.56623  -0.55653  -0.55461  -0.55236  -0.55089
 Alpha  occ. eigenvalues --   -0.54989  -0.54763  -0.54564  -0.54064  -0.53561
 Alpha  occ. eigenvalues --   -0.53027  -0.52875  -0.52840  -0.52576  -0.51993
 Alpha  occ. eigenvalues --   -0.51879  -0.51645  -0.51359  -0.51183  -0.51026
 Alpha  occ. eigenvalues --   -0.50764  -0.50493  -0.50154  -0.50121  -0.49976
 Alpha  occ. eigenvalues --   -0.49748  -0.49418  -0.49115  -0.48881  -0.48706
 Alpha  occ. eigenvalues --   -0.48576  -0.48253  -0.48194  -0.47980  -0.47457
 Alpha  occ. eigenvalues --   -0.47276  -0.46810  -0.46769  -0.46550  -0.46521
 Alpha  occ. eigenvalues --   -0.46326  -0.45959  -0.45728  -0.45653  -0.45488
 Alpha  occ. eigenvalues --   -0.44970  -0.44814  -0.44739  -0.44519  -0.44413
 Alpha  occ. eigenvalues --   -0.44269  -0.44122  -0.43673  -0.43547  -0.43341
 Alpha  occ. eigenvalues --   -0.43139  -0.43072  -0.42946  -0.42705  -0.42580
 Alpha  occ. eigenvalues --   -0.42172  -0.41904  -0.41644  -0.41492  -0.41380
 Alpha  occ. eigenvalues --   -0.41036  -0.40962  -0.40808  -0.40301  -0.40242
 Alpha  occ. eigenvalues --   -0.40006  -0.39822  -0.39605  -0.39330  -0.39290
 Alpha  occ. eigenvalues --   -0.38997  -0.38759  -0.38373  -0.38373  -0.37796
 Alpha  occ. eigenvalues --   -0.37730  -0.37438  -0.37220  -0.36847  -0.36677
 Alpha  occ. eigenvalues --   -0.36622  -0.35954  -0.35759  -0.35525  -0.35442
 Alpha  occ. eigenvalues --   -0.35282  -0.34459  -0.34195  -0.33686  -0.33450
 Alpha  occ. eigenvalues --   -0.33123  -0.32836  -0.32279  -0.31830  -0.30805
 Alpha  occ. eigenvalues --   -0.29559  -0.29003  -0.28841  -0.27656  -0.23475
 Alpha  occ. eigenvalues --   -0.21294
 Alpha virt. eigenvalues --   -0.07240  -0.02921   0.01856   0.04191   0.05593
 Alpha virt. eigenvalues --    0.05953   0.06303   0.06707   0.07428   0.07648
 Alpha virt. eigenvalues --    0.08171   0.10839   0.10915   0.12022   0.12133

 Mulliken charges:
               1
     1  Mg   0.827039
     2  C    0.123913
     3  C   -0.210308
     4  C   -0.159254
     5  C   -0.138496
     6  N   -0.678824
     7  C    0.371579
     8  C   -0.224498
     9  C   -0.101386
    10  C    0.343606
    11  C   -0.301108
    12  C   -0.146195
    13  C   -0.277497
    14  C    0.617242
    15  O   -0.491444
    16  O   -0.492330
    17  N   -0.722721
    18  C    0.314139
    19  C    0.012775
    20  C   -0.019472
    21  C    0.282303
    22  C   -0.369725
    23  C   -0.024025
    24  C   -0.267892
    25  N   -0.688276
    26  C    0.305989
    27  C    0.008938
    28  C   -0.019200
    29  C    0.270943
    30  C   -0.364562
    31  C   -0.238064
    32  C   -0.280476
    33  N   -0.684400
    34  C    0.201382
    35  C    0.043869
    36  C    0.017554
    37  C    0.292279
    38  C   -0.383307
    39  C    0.359985
    40  O   -0.447059
    41  C   -0.351887
    42  C    0.614405
    43  O   -0.464887
    44  O   -0.450747
    45  C   -0.062297
    46  C    0.010834
    47  C   -0.151064
    48  C    0.104980
    49  C   -0.337279
    50  C   -0.221332
    51  C   -0.181031
    52  C   -0.172311
    53  C   -0.065406
    54  C   -0.316198
    55  C   -0.174749
    56  C   -0.201124
    57  C   -0.183965
    58  C   -0.042239
    59  C   -0.305089
    60  C   -0.153753
    61  C   -0.187891
    62  C   -0.169415
    63  C   -0.059363
    64  C   -0.324056
    65  C   -0.299491
    66  H    0.058785
    67  H    0.105077
    68  H    0.103806
    69  H    0.114267
    70  H    0.106348
    71  H    0.103972
    72  H    0.114530
    73  H    0.120100
    74  H    0.119897
    75  H    0.101976
    76  H    0.138844
    77  H    0.140019
    78  H    0.132263
    79  H    0.119185
    80  H    0.122665
    81  H    0.090171
    82  H    0.100206
    83  H    0.099079
    84  H    0.101150
    85  H    0.116786
    86  H    0.128044
    87  H    0.096570
    88  H    0.109570
    89  H    0.109600
    90  H    0.085010
    91  H    0.102910
    92  H    0.098148
    93  H    0.150053
    94  H    0.128443
    95  H    0.171835
    96  H    0.077493
    97  H    0.138863
    98  H    0.122404
    99  H    0.141053
   100  H    0.109963
   101  H    0.095586
   102  H    0.121175
   103  H    0.100187
   104  H    0.136971
   105  H    0.079077
   106  H    0.113764
   107  H    0.084303
   108  H    0.109972
   109  H    0.102568
   110  H    0.073141
   111  H    0.072520
   112  H    0.103956
   113  H    0.119132
   114  H    0.099889
   115  H    0.090630
   116  H    0.077882
   117  H    0.101383
   118  H    0.099547
   119  H    0.075333
   120  H    0.099142
   121  H    0.093297
   122  H    0.107903
   123  H    0.085032
   124  H    0.088242
   125  H    0.096623
   126  H    0.072586
   127  H    0.071861
   128  H    0.104258
   129  H    0.055189
   130  H    0.068083
   131  H    0.095455
   132  H    0.094906
   133  H    0.093347
   134  H    0.116783
   135  H    0.112831
   136  H    0.090733
   137  H    0.099968
 Sum of Mulliken charges =   0.00000

 Dipole moment (field-independent basis, Debye):
    X=              1.2501    Y=              4.0267    Z=             -0.5982  Tot=              4.2585
 Quadrupole moment (field-independent basis, Debye-Ang):
   XX=           -343.6964   YY=           -388.5639   ZZ=           -401.8254
   XY=            -15.2217   XZ=              4.1860   YZ=             -0.5101

 Normal termination of Gaussian 09 at Sun Jun 30 13:27:22 2019.
