 Gaussian 09, Revision D.01,
 Gaussian 09:  ES64L-G09RevD.01 24-Apr-2013

 -------------------------------------
 # td=(NStates=1) CAM-B3LYP/6-31G(d,p)
 -------------------------------------

 --
 TD
 --
 Symbolic Z-matrix:
 Charge =  0 Multiplicity = 1

                         Standard orientation:
 ---------------------------------------------------------------------
 Center     Atomic      Atomic             Coordinates (Angstroms)
 Number     Number       Type             X           Y           Z
 ---------------------------------------------------------------------
      1         12           0       -7.186822    0.539498    0.105562
      2          6           0       -4.710555   -1.941329    0.456256
      3          6           0       -4.766658    2.863097    1.079186
      4          6           0       -9.412985    2.952849   -0.254648
      5          6           0       -9.494387   -1.864673   -0.809224
      6          7           0       -5.074197    0.463152    0.593198
      7          6           0       -4.352858   -0.629680    0.703440
      8          6           0       -2.875626   -0.358336    1.083465
      9          6           0       -2.957756    1.209768    1.509988
     10          6           0       -4.323990    1.519635    1.018555
     11          6           0       -2.769450    1.429915    3.004444
     12          6           0       -1.985337   -0.541831   -0.025665
     13          6           0       -0.426429   -0.286779    0.371570
     14          6           0        0.550500   -0.615863   -0.680174
     15          8           0        0.265528   -0.958492   -1.847456
     16          8           0        1.770151   -0.459877   -0.210323
     17          7           0       -7.063924    2.612732    0.344181
     18          6           0       -6.087605    3.381523    0.761248
     19          6           0       -6.453056    4.745757    0.780726
     20          6           0       -7.785836    4.760530    0.430860
     21          6           0       -8.190362    3.436046    0.090592
     22          6           0       -5.635182    5.873591    1.093676
     23          6           0       -8.741521    5.838037    0.410165
     24          6           0       -8.311683    7.060546   -0.144427
     25          7           0       -9.174529    0.553518   -0.404413
     26          6           0       -9.912348    1.724059   -0.570826
     27          6           0      -11.217902    1.316413   -0.938771
     28          6           0      -11.256640   -0.063671   -1.098769
     29          6           0       -9.915174   -0.479134   -0.791162
     30          6           0      -12.420759    2.380146   -1.088761
     31          6           0      -12.405904   -0.936049   -1.530771
     32          6           0      -12.312209   -1.222990   -3.077174
     33          7           0       -7.225588   -1.435352   -0.147922
     34          6           0       -8.270008   -2.327553   -0.494054
     35          6           0       -7.783049   -3.614008   -0.478290
     36          6           0       -6.415766   -3.484449   -0.112214
     37          6           0       -6.158210   -2.204671   -0.018538
     38          6           0       -8.587956   -4.891423   -0.765346
     39          6           0       -5.158880   -4.355801    0.245365
     40          8           0       -5.046633   -5.511290    0.273480
     41          6           0       -4.045090   -3.207810    0.467532
     42          6           0       -3.358583   -3.570098    1.769219
     43          8           0       -3.637515   -2.937413    2.805009
     44          8           0       -2.494988   -4.561637    1.655562
     45          6           0       -2.027796   -4.818261    3.065556
     46          6           0        2.863441   -0.690504   -1.185807
     47          6           0        4.162397   -0.404257   -0.574757
     48          6           0        5.153088    0.433301   -1.042971
     49          6           0        5.129365    1.213959   -2.255910
     50          6           0        6.407841    0.579085   -0.196253
     51          6           0        7.618506   -0.071091   -0.986134
     52          6           0        8.847118   -0.015177   -0.105666
     53          6           0       10.105262   -0.581142   -0.780320
     54          6           0       10.043460   -2.082143   -1.131356
     55          6           0       11.387338   -0.332771    0.049770
     56          6           0       12.687094   -0.545026   -0.687660
     57          6           0       13.905071   -0.190274    0.197755
     58          6           0       15.339811   -0.304316   -0.449762
     59          6           0       15.600359   -1.779503   -0.626539
     60          6           0       16.394872    0.357798    0.423701
     61          6           0       17.746188    0.434902   -0.094806
     62          6           0       18.629706    1.187108    0.842395
     63          6           0       20.081397    1.376734    0.276954
     64          6           0       20.093369    2.026814   -1.120434
     65          6           0       21.036284    2.155206    1.183068
     66          1           0       -3.952733    3.535895    1.319557
     67          1           0      -10.061869    3.742351   -0.368910
     68          1           0      -10.233272   -2.541603   -1.165865
     69          1           0       -2.518252   -0.839346    2.006561
     70          1           0       -2.400350    1.960760    1.120117
     71          1           0       -1.708098    1.218387    3.238347
     72          1           0       -3.010252    2.555918    3.454672
     73          1           0       -3.419324    0.869717    3.625908
     74          1           0       -2.052973   -1.548317   -0.318813
     75          1           0       -2.350269    0.029669   -0.809131
     76          1           0       -0.333002    0.798606    0.798932
     77          1           0       -0.231829   -1.062311    1.234824
     78          1           0       -5.176419    6.270552    0.379409
     79          1           0       -6.363262    6.664867    1.371997
     80          1           0       -4.934242    5.949089    1.951710
     81          1           0       -9.820786    5.616684    0.708124
     82          1           0       -8.785189    7.982535   -0.134422
     83          1           0       -7.296544    7.284722   -0.479009
     84          1           0      -12.269811    2.885054   -2.065978
     85          1           0      -13.250875    1.781204   -0.854411
     86          1           0      -12.318642    3.063356   -0.089589
     87          1           0      -12.396067   -1.795262   -0.671830
     88          1           0      -13.415244   -0.436861   -1.432979
     89          1           0      -13.044273   -1.925416   -3.386107
     90          1           0      -12.398717   -0.263374   -3.482823
     91          1           0      -11.205328   -1.443361   -3.216544
     92          1           0       -8.667506   -4.979961   -1.936820
     93          1           0       -8.115754   -5.777278   -0.479413
     94          1           0       -9.640779   -4.803539   -0.304069
     95          1           0       -3.245007   -3.398393   -0.420684
     96          1           0       -1.695469   -3.921356    3.389294
     97          1           0       -2.772917   -5.401709    3.678645
     98          1           0       -1.330902   -5.623650    2.910082
     99          1           0        2.851332   -1.736147   -1.364961
    100          1           0        2.756260   -0.104521   -2.046104
    101          1           0        4.243471   -1.011674    0.345150
    102          1           0        4.131766    1.221427   -2.578372
    103          1           0        5.606977    2.057950   -2.115025
    104          1           0        5.697377    0.689427   -3.063299
    105          1           0        6.687654    1.490084    0.029587
    106          1           0        6.356179   -0.028545    0.618299
    107          1           0        7.467726   -1.047577   -1.393779
    108          1           0        7.762534    0.554763   -1.877909
    109          1           0        8.904791    0.956920    0.279906
    110          1           0        8.756711   -0.535924    0.841112
    111          1           0       10.400635    0.047984   -1.752653
    112          1           0        9.134554   -2.248253   -1.637875
    113          1           0       10.847024   -2.610762   -1.660010
    114          1           0        9.924411   -2.579010   -0.128027
    115          1           0       11.538810    0.739038    0.303389
    116          1           0       11.322659   -1.095140    0.917713
    117          1           0       12.779689   -1.613233   -0.863974
    118          1           0       12.574740    0.054360   -1.554394
    119          1           0       13.793779    0.879235    0.462260
    120          1           0       14.065177   -0.608001    1.115719
    121          1           0       15.300479    0.253860   -1.560084
    122          1           0       15.447375   -2.316208    0.103581
    123          1           0       14.872744   -2.282034   -1.346919
    124          1           0       16.616380   -2.032290   -1.004728
    125          1           0       15.955385    1.383361    0.501486
    126          1           0       16.754047   -0.157682    1.348928
    127          1           0       18.109106   -0.631097   -0.621147
    128          1           0       17.581260    1.018966   -0.958477
    129          1           0       18.274519    2.291751    1.122234
    130          1           0       18.777300    0.699511    1.779517
    131          1           0       20.573654    0.545068   -0.001522
    132          1           0       19.652948    3.182871   -1.190333
    133          1           0       21.112903    2.141437   -1.740964
    134          1           0       19.585581    1.531945   -1.870204
    135          1           0       21.006912    1.699689    2.256830
    136          1           0       22.106051    2.126231    0.823140
    137          1           0       20.712753    3.144714    1.349117
 ---------------------------------------------------------------------

 SCF Done:  E(RCAM-B3LYP) =  -2932.69513428     A.U. after   15 cycles

 Excitation energies and oscillator strengths:

 Excited State   1:      Singlet-A      2.1424 eV  578.71 nm  f=0.1930  <S**2>=0.000
     240 -> 242       -0.25215
     240 -> 243        0.21713
     241 -> 242        0.59556
     241 -> 243        0.14792
 This state for optimization and/or second-order correction.
 Total Energy, E(TD-HF/TD-KS) =  -2932.61640134
 Copying the excited state density for this state as the 1-particle RhoCI density.

 The electronic state is 1-A.
 Alpha  occ. eigenvalues --  -46.83809 -19.27530 -19.26309 -19.22173 -19.19933
 Alpha  occ. eigenvalues --  -19.19526 -14.40630 -14.38556 -14.38284 -14.38181
 Alpha  occ. eigenvalues --  -10.38800 -10.38520 -10.36229 -10.31099 -10.30797
 Alpha  occ. eigenvalues --  -10.29836 -10.29705 -10.28890 -10.28778 -10.28627
 Alpha  occ. eigenvalues --  -10.28608 -10.28324 -10.28074 -10.27916 -10.27816
 Alpha  occ. eigenvalues --  -10.27812 -10.27785 -10.27777 -10.27739 -10.27711
 Alpha  occ. eigenvalues --  -10.27052 -10.27024 -10.27023 -10.26986 -10.26563
 Alpha  occ. eigenvalues --  -10.26224 -10.26199 -10.26177 -10.25987 -10.25923
 Alpha  occ. eigenvalues --  -10.25843 -10.25834 -10.25758 -10.25744 -10.25734
 Alpha  occ. eigenvalues --  -10.25478 -10.25351 -10.25328 -10.25292 -10.25237
 Alpha  occ. eigenvalues --  -10.25085 -10.25017 -10.24879 -10.24794 -10.24726
 Alpha  occ. eigenvalues --  -10.24689 -10.24677 -10.24648 -10.24546 -10.24531
 Alpha  occ. eigenvalues --  -10.24299 -10.24294 -10.24175 -10.23550 -10.22700
 Alpha  occ. eigenvalues --   -3.12784  -1.87505  -1.87045  -1.86926  -1.18509
 Alpha  occ. eigenvalues --   -1.17806  -1.15220  -1.07635  -1.06773  -1.04792
 Alpha  occ. eigenvalues --   -1.03965  -1.03563  -1.02652  -0.92289  -0.91874
 Alpha  occ. eigenvalues --   -0.91499  -0.90217  -0.89857  -0.89527  -0.89066
 Alpha  occ. eigenvalues --   -0.88400  -0.87462  -0.87282  -0.86871  -0.86555
 Alpha  occ. eigenvalues --   -0.85434  -0.84861  -0.83673  -0.83550  -0.82338
 Alpha  occ. eigenvalues --   -0.81842  -0.81250  -0.80997  -0.79935  -0.78351
 Alpha  occ. eigenvalues --   -0.77882  -0.77266  -0.76833  -0.76121  -0.76070
 Alpha  occ. eigenvalues --   -0.75060  -0.74921  -0.74754  -0.73319  -0.72527
 Alpha  occ. eigenvalues --   -0.71590  -0.70492  -0.69657  -0.69077  -0.68356
 Alpha  occ. eigenvalues --   -0.67309  -0.66794  -0.65417  -0.65191  -0.64629
 Alpha  occ. eigenvalues --   -0.63688  -0.63430  -0.63138  -0.62759  -0.62012
 Alpha  occ. eigenvalues --   -0.61847  -0.60887  -0.60769  -0.59914  -0.58969
 Alpha  occ. eigenvalues --   -0.58534  -0.58179  -0.57994  -0.57633  -0.57096
 Alpha  occ. eigenvalues --   -0.56170  -0.55976  -0.55614  -0.55133  -0.55009
 Alpha  occ. eigenvalues --   -0.54969  -0.54681  -0.54320  -0.53667  -0.53269
 Alpha  occ. eigenvalues --   -0.53142  -0.52732  -0.52405  -0.52333  -0.52213
 Alpha  occ. eigenvalues --   -0.51814  -0.51526  -0.51164  -0.51130  -0.50700
 Alpha  occ. eigenvalues --   -0.50390  -0.50209  -0.50008  -0.49971  -0.49713
 Alpha  occ. eigenvalues --   -0.49601  -0.49359  -0.49173  -0.49026  -0.48786
 Alpha  occ. eigenvalues --   -0.48165  -0.47799  -0.47565  -0.47464  -0.47427
 Alpha  occ. eigenvalues --   -0.47177  -0.46759  -0.46480  -0.46323  -0.46141
 Alpha  occ. eigenvalues --   -0.46031  -0.45732  -0.45680  -0.45211  -0.45102
 Alpha  occ. eigenvalues --   -0.45035  -0.44935  -0.44594  -0.44444  -0.44291
 Alpha  occ. eigenvalues --   -0.44270  -0.44230  -0.43931  -0.43453  -0.43320
 Alpha  occ. eigenvalues --   -0.43257  -0.42886  -0.42824  -0.42554  -0.42445
 Alpha  occ. eigenvalues --   -0.42403  -0.42227  -0.42048  -0.41778  -0.41215
 Alpha  occ. eigenvalues --   -0.41086  -0.40914  -0.40541  -0.40434  -0.40322
 Alpha  occ. eigenvalues --   -0.40204  -0.40002  -0.39876  -0.39416  -0.39171
 Alpha  occ. eigenvalues --   -0.38986  -0.38722  -0.38517  -0.37952  -0.37918
 Alpha  occ. eigenvalues --   -0.37317  -0.37190  -0.36925  -0.36873  -0.36378
 Alpha  occ. eigenvalues --   -0.36229  -0.35943  -0.35858  -0.35711  -0.35478
 Alpha  occ. eigenvalues --   -0.35162  -0.34665  -0.34384  -0.34173  -0.33115
 Alpha  occ. eigenvalues --   -0.32664  -0.32512  -0.32138  -0.30330  -0.29580
 Alpha  occ. eigenvalues --   -0.28811  -0.28768  -0.27726  -0.27013  -0.22410
 Alpha  occ. eigenvalues --   -0.21482
 Alpha virt. eigenvalues --   -0.06367  -0.02557   0.03182   0.03956   0.05379
 Alpha virt. eigenvalues --    0.05921   0.06440   0.06688   0.07196   0.07607
 Alpha virt. eigenvalues --    0.09556   0.10938   0.11549   0.12206   0.12241

 Mulliken charges:
               1
     1  Mg   0.813526
     2  C    0.107843
     3  C   -0.221057
     4  C   -0.170903
     5  C   -0.169556
     6  N   -0.640825
     7  C    0.326654
     8  C   -0.180191
     9  C   -0.142226
    10  C    0.340661
    11  C   -0.307496
    12  C   -0.131622
    13  C   -0.277553
    14  C    0.624566
    15  O   -0.510846
    16  O   -0.469894
    17  N   -0.710531
    18  C    0.337108
    19  C    0.039471
    20  C    0.031761
    21  C    0.281687
    22  C   -0.394386
    23  C   -0.121510
    24  C   -0.241583
    25  N   -0.702578
    26  C    0.316667
    27  C   -0.043740
    28  C    0.013111
    29  C    0.300374
    30  C   -0.345241
    31  C   -0.244077
    32  C   -0.305673
    33  N   -0.750247
    34  C    0.307491
    35  C   -0.000416
    36  C   -0.056748
    37  C    0.313932
    38  C   -0.362086
    39  C    0.407259
    40  O   -0.398988
    41  C   -0.381925
    42  C    0.647667
    43  O   -0.509186
    44  O   -0.455886
    45  C   -0.089518
    46  C    0.025289
    47  C   -0.158834
    48  C    0.109861
    49  C   -0.351456
    50  C   -0.217573
    51  C   -0.200849
    52  C   -0.167555
    53  C   -0.061252
    54  C   -0.315892
    55  C   -0.165222
    56  C   -0.173394
    57  C   -0.176322
    58  C   -0.064657
    59  C   -0.299983
    60  C   -0.157532
    61  C   -0.172890
    62  C   -0.171511
    63  C   -0.049255
    64  C   -0.307853
    65  C   -0.307553
    66  H    0.070477
    67  H    0.071232
    68  H    0.100720
    69  H    0.120588
    70  H    0.109434
    71  H    0.103367
    72  H    0.078268
    73  H    0.132581
    74  H    0.111819
    75  H    0.120516
    76  H    0.130559
    77  H    0.121544
    78  H    0.137498
    79  H    0.112347
    80  H    0.110758
    81  H    0.112275
    82  H    0.106300
    83  H    0.107934
    84  H    0.133570
    85  H    0.126821
    86  H    0.095090
    87  H    0.086242
    88  H    0.098814
    89  H    0.116074
    90  H    0.125753
    91  H    0.105685
    92  H    0.115725
    93  H    0.149672
    94  H    0.112999
    95  H    0.149293
    96  H    0.154570
    97  H    0.138691
    98  H    0.123231
    99  H    0.132084
   100  H    0.121640
   101  H    0.088964
   102  H    0.116414
   103  H    0.126412
   104  H    0.125348
   105  H    0.107986
   106  H    0.111695
   107  H    0.104999
   108  H    0.091864
   109  H    0.098143
   110  H    0.090384
   111  H    0.052533
   112  H    0.105781
   113  H    0.116017
   114  H    0.092462
   115  H    0.081879
   116  H    0.070973
   117  H    0.095009
   118  H    0.098732
   119  H    0.071684
   120  H    0.104509
   121  H    0.049673
   122  H    0.114655
   123  H    0.084715
   124  H    0.087061
   125  H    0.091125
   126  H    0.083130
   127  H    0.072903
   128  H    0.105317
   129  H    0.085534
   130  H    0.101519
   131  H    0.106405
   132  H    0.058555
   133  H    0.073301
   134  H    0.115668
   135  H    0.075102
   136  H    0.100487
   137  H    0.110035
 Sum of Mulliken charges =   0.00000

 Dipole moment (field-independent basis, Debye):
    X=              1.8087    Y=              2.7933    Z=              0.5568  Tot=              3.3740
 Quadrupole moment (field-independent basis, Debye-Ang):
   XX=           -350.3602   YY=           -382.1105   ZZ=           -397.4423
   XY=            -19.2197   XZ=              9.6183   YZ=             -4.8740

 Normal termination of Gaussian 09 at Thu Jun 27 09:02:19 2019.
