 Gaussian 09, Revision D.01,
 Gaussian 09:  ES64L-G09RevD.01 24-Apr-2013

 -------------------------------------
 # td=(NStates=1) CAM-B3LYP/6-31G(d,p)
 -------------------------------------

 --
 TD
 --
 Symbolic Z-matrix:
 Charge =  0 Multiplicity = 1

                         Standard orientation:
 ---------------------------------------------------------------------
 Center     Atomic      Atomic             Coordinates (Angstroms)
 Number     Number       Type             X           Y           Z
 ---------------------------------------------------------------------
      1         12           0       -7.079601    0.595788    0.104694
      2          6           0       -4.965975   -1.962381    0.470972
      3          6           0       -4.786630    2.724761    1.230207
      4          6           0       -9.350003    3.150981   -0.341363
      5          6           0       -9.513184   -1.684527   -0.955101
      6          7           0       -5.107161    0.347314    0.714309
      7          6           0       -4.337200   -0.817763    0.868443
      8          6           0       -2.928578   -0.550717    1.328651
      9          6           0       -3.033411    1.029325    1.817534
     10          6           0       -4.333227    1.426216    1.225266
     11          6           0       -2.974745    1.155869    3.342923
     12          6           0       -1.937171   -0.799728    0.249895
     13          6           0       -0.482072   -0.427725    0.627246
     14          6           0        0.500153   -0.669581   -0.587675
     15          8           0        0.221971   -0.983221   -1.679793
     16          8           0        1.739008   -0.320535   -0.216481
     17          7           0       -7.110204    2.529046    0.461327
     18          6           0       -5.973682    3.271387    0.821664
     19          6           0       -6.361794    4.673833    0.990988
     20          6           0       -7.675733    4.762913    0.620501
     21          6           0       -8.066798    3.513669    0.198169
     22          6           0       -5.442862    5.838921    1.328518
     23          6           0       -8.465333    5.933855    0.421297
     24          6           0       -8.102817    7.171080    0.260792
     25          7           0       -9.187287    0.735817   -0.478322
     26          6           0       -9.819804    1.832865   -0.645420
     27          6           0      -11.185757    1.490899   -1.138332
     28          6           0      -11.214149    0.093264   -1.268626
     29          6           0       -9.942706   -0.343194   -0.878988
     30          6           0      -12.180652    2.639317   -1.465681
     31          6           0      -12.308935   -0.759443   -1.868258
     32          6           0      -12.078659   -0.788963   -3.375544
     33          7           0       -7.239132   -1.364373   -0.102924
     34          6           0       -8.282288   -2.217130   -0.601584
     35          6           0       -7.810561   -3.603282   -0.655494
     36          6           0       -6.478532   -3.620655   -0.193594
     37          6           0       -6.239468   -2.224643    0.150633
     38          6           0       -8.652225   -4.887524   -1.069728
     39          6           0       -5.294650   -4.433115    0.185362
     40          8           0       -5.125050   -5.675837    0.124679
     41          6           0       -4.248182   -3.342321    0.544721
     42          6           0       -3.450924   -3.742624    1.857511
     43          8           0       -3.574024   -3.218240    2.977323
     44          8           0       -2.681438   -4.797355    1.694302
     45          6           0       -2.169458   -5.304836    2.881760
     46          6           0        2.791095   -0.457454   -1.219336
     47          6           0        4.120699   -0.260078   -0.507531
     48          6           0        5.063320    0.615502   -0.888737
     49          6           0        5.032381    1.463910   -2.155021
     50          6           0        6.325782    0.611259   -0.207378
     51          6           0        7.526405   -0.024789   -0.953173
     52          6           0        8.888606    0.014181   -0.229476
     53          6           0       10.106129   -0.508741   -0.981102
     54          6           0        9.927121   -1.922444   -1.369759
     55          6           0       11.393276   -0.226510   -0.105444
     56          6           0       12.650577   -0.504792   -0.780993
     57          6           0       13.842529   -0.229783    0.248073
     58          6           0       15.285720   -0.202702   -0.498788
     59          6           0       15.643705   -1.660766   -1.034391
     60          6           0       16.372057    0.364682    0.375556
     61          6           0       17.712233    0.641628   -0.258228
     62          6           0       18.700258    1.215660    0.703192
     63          6           0       20.139093    1.272051    0.258655
     64          6           0       20.335457    1.977696   -1.016784
     65          6           0       20.981540    1.745861    1.324650
     66          1           0       -4.121481    3.432957    1.676922
     67          1           0      -10.171306    3.835349   -0.602864
     68          1           0      -10.111497   -2.429393   -1.569381
     69          1           0       -2.628083   -1.297904    2.108675
     70          1           0       -2.324165    1.639237    1.306181
     71          1           0       -2.166838    0.647212    3.751612
     72          1           0       -2.765189    2.264712    3.765395
     73          1           0       -3.843584    0.595824    3.699981
     74          1           0       -1.960119   -1.782442   -0.156302
     75          1           0       -2.302007   -0.173154   -0.396428
     76          1           0       -0.484346    0.667285    0.896310
     77          1           0        0.167724   -0.941548    1.561663
     78          1           0       -5.116888    6.148744    0.263898
     79          1           0       -5.978200    6.544359    1.750837
     80          1           0       -4.517809    5.447343    1.854910
     81          1           0       -9.467071    5.805689    0.393049
     82          1           0       -8.789223    8.081619    0.046236
     83          1           0       -6.963033    7.471068    0.066672
     84          1           0      -11.892543    3.315053   -2.163913
     85          1           0      -13.229480    2.254720   -1.779489
     86          1           0      -12.318783    3.090698   -0.581985
     87          1           0      -12.320065   -1.666042   -1.354237
     88          1           0      -13.356270   -0.258571   -1.651288
     89          1           0      -12.892619   -1.443488   -3.829565
     90          1           0      -11.976444    0.313917   -3.729728
     91          1           0      -11.244132   -1.553068   -3.557333
     92          1           0       -9.110737   -4.684042   -2.045822
     93          1           0       -8.016613   -5.769719   -0.857595
     94          1           0       -9.567054   -5.196970   -0.363815
     95          1           0       -3.454496   -3.157436   -0.222210
     96          1           0       -1.544501   -4.580315    3.440298
     97          1           0       -2.840072   -5.743025    3.562098
     98          1           0       -1.526559   -6.306549    2.328596
     99          1           0        2.781654   -1.524180   -1.637255
    100          1           0        2.549376    0.147247   -2.060969
    101          1           0        4.352317   -0.928614    0.278209
    102          1           0        4.043354    1.711467   -2.377978
    103          1           0        5.519369    2.326014   -1.976371
    104          1           0        5.401630    1.153691   -2.988985
    105          1           0        6.591237    1.632850   -0.139468
    106          1           0        6.226771   -0.031262    0.757345
    107          1           0        7.114496   -1.040650   -1.195571
    108          1           0        7.695162    0.490025   -2.196084
    109          1           0        8.855865    0.865652    0.192583
    110          1           0        8.844367   -0.675102    0.729448
    111          1           0       10.398918    0.180822   -1.684577
    112          1           0        9.271354   -1.743556   -1.983512
    113          1           0       10.923540   -2.149764   -1.926589
    114          1           0        9.948144   -2.601619   -0.436531
    115          1           0       11.327506    0.822591    0.591231
    116          1           0       11.471651   -1.055910    0.739206
    117          1           0       12.521704   -1.526373   -1.113778
    118          1           0       12.782002    0.105631   -1.545984
    119          1           0       13.849794    0.841980    0.679103
    120          1           0       13.873982   -0.804869    1.178561
    121          1           0       15.226809    0.402197   -1.247132
    122          1           0       16.135376   -2.242387    0.039438
    123          1           0       14.801791   -2.076118   -1.713162
    124          1           0       16.686038   -1.546724   -1.290967
    125          1           0       16.018254    1.299546    0.774645
    126          1           0       16.482629   -0.211585    1.229155
    127          1           0       18.025734   -0.519891   -0.787742
    128          1           0       17.615901    1.356132   -1.101074
    129          1           0       18.397969    1.993552    1.050874
    130          1           0       18.786637    0.751600    1.607298
    131          1           0       20.696327    0.157106    0.127249
    132          1           0       19.959498    2.952206   -1.017302
    133          1           0       21.448118    2.100220   -1.175844
    134          1           0       19.975765    1.355145   -1.905189
    135          1           0       20.744529    1.306122    2.219287
    136          1           0       22.184964    1.614866    1.286721
    137          1           0       20.621075    2.897022    1.303120
 ---------------------------------------------------------------------

 SCF Done:  E(RCAM-B3LYP) =  -2932.50884891     A.U. after   18 cycles

 Excitation energies and oscillator strengths:

 Excited State   1:      Singlet-A      2.0222 eV  613.12 nm  f=0.2207  <S**2>=0.000
     240 -> 243        0.26488
     241 -> 242        0.64711
 This state for optimization and/or second-order correction.
 Total Energy, E(TD-HF/TD-KS) =  -2932.43453478
 Copying the excited state density for this state as the 1-particle RhoCI density.

 The electronic state is 1-A.
 Alpha  occ. eigenvalues --  -46.83679 -19.27478 -19.25528 -19.21090 -19.20824
 Alpha  occ. eigenvalues --  -19.20754 -14.41902 -14.39559 -14.39479 -14.38284
 Alpha  occ. eigenvalues --  -10.39956 -10.38818 -10.36171 -10.32490 -10.32109
 Alpha  occ. eigenvalues --  -10.30936 -10.30695 -10.29980 -10.29755 -10.29585
 Alpha  occ. eigenvalues --  -10.29555 -10.29399 -10.29397 -10.28668 -10.28515
 Alpha  occ. eigenvalues --  -10.28242 -10.28143 -10.28092 -10.28090 -10.28081
 Alpha  occ. eigenvalues --  -10.27803 -10.27681 -10.27247 -10.27158 -10.27070
 Alpha  occ. eigenvalues --  -10.26981 -10.26629 -10.26592 -10.26589 -10.26481
 Alpha  occ. eigenvalues --  -10.26379 -10.26277 -10.26217 -10.26079 -10.26061
 Alpha  occ. eigenvalues --  -10.26035 -10.25986 -10.25964 -10.25928 -10.25854
 Alpha  occ. eigenvalues --  -10.25840 -10.25578 -10.25357 -10.25319 -10.25312
 Alpha  occ. eigenvalues --  -10.25299 -10.24879 -10.24817 -10.24566 -10.24373
 Alpha  occ. eigenvalues --  -10.24370 -10.24077 -10.23714 -10.23277 -10.22358
 Alpha  occ. eigenvalues --   -3.12871  -1.87559  -1.87104  -1.87078  -1.20588
 Alpha  occ. eigenvalues --   -1.19048  -1.10294  -1.09007  -1.08340  -1.04349
 Alpha  occ. eigenvalues --   -1.03309  -1.02933  -1.01596  -0.92708  -0.92506
 Alpha  occ. eigenvalues --   -0.92275  -0.91382  -0.90697  -0.90249  -0.89093
 Alpha  occ. eigenvalues --   -0.89042  -0.88420  -0.86894  -0.86516  -0.86155
 Alpha  occ. eigenvalues --   -0.85368  -0.84572  -0.83758  -0.83383  -0.82661
 Alpha  occ. eigenvalues --   -0.82271  -0.81816  -0.81273  -0.80634  -0.79097
 Alpha  occ. eigenvalues --   -0.78690  -0.77932  -0.77398  -0.76886  -0.75959
 Alpha  occ. eigenvalues --   -0.75530  -0.75308  -0.74702  -0.73760  -0.72799
 Alpha  occ. eigenvalues --   -0.72084  -0.70891  -0.69613  -0.68989  -0.68352
 Alpha  occ. eigenvalues --   -0.66879  -0.66763  -0.65767  -0.65201  -0.64865
 Alpha  occ. eigenvalues --   -0.64734  -0.64391  -0.63123  -0.63042  -0.62343
 Alpha  occ. eigenvalues --   -0.62273  -0.60865  -0.60318  -0.60203  -0.59204
 Alpha  occ. eigenvalues --   -0.58887  -0.58626  -0.57800  -0.57329  -0.56620
 Alpha  occ. eigenvalues --   -0.56029  -0.55855  -0.55520  -0.55369  -0.55221
 Alpha  occ. eigenvalues --   -0.54861  -0.54790  -0.54649  -0.54304  -0.53937
 Alpha  occ. eigenvalues --   -0.53339  -0.53226  -0.53019  -0.52463  -0.52205
 Alpha  occ. eigenvalues --   -0.51780  -0.51661  -0.51462  -0.51193  -0.51151
 Alpha  occ. eigenvalues --   -0.50770  -0.50696  -0.50456  -0.50244  -0.50065
 Alpha  occ. eigenvalues --   -0.49685  -0.49616  -0.49340  -0.48994  -0.48658
 Alpha  occ. eigenvalues --   -0.48189  -0.48013  -0.47701  -0.47689  -0.47454
 Alpha  occ. eigenvalues --   -0.47351  -0.47223  -0.46758  -0.46277  -0.46110
 Alpha  occ. eigenvalues --   -0.45885  -0.45763  -0.45625  -0.45295  -0.45009
 Alpha  occ. eigenvalues --   -0.44937  -0.44621  -0.44612  -0.44455  -0.44145
 Alpha  occ. eigenvalues --   -0.43984  -0.43821  -0.43698  -0.43353  -0.43231
 Alpha  occ. eigenvalues --   -0.43014  -0.42927  -0.42762  -0.42608  -0.42489
 Alpha  occ. eigenvalues --   -0.42213  -0.41830  -0.41685  -0.41413  -0.41356
 Alpha  occ. eigenvalues --   -0.41024  -0.40837  -0.40734  -0.40653  -0.40570
 Alpha  occ. eigenvalues --   -0.40273  -0.39899  -0.39786  -0.39639  -0.39542
 Alpha  occ. eigenvalues --   -0.39358  -0.38524  -0.38383  -0.38008  -0.37991
 Alpha  occ. eigenvalues --   -0.37867  -0.37674  -0.37088  -0.36926  -0.36794
 Alpha  occ. eigenvalues --   -0.36454  -0.36394  -0.36247  -0.36124  -0.36106
 Alpha  occ. eigenvalues --   -0.35636  -0.34899  -0.33951  -0.33810  -0.33695
 Alpha  occ. eigenvalues --   -0.32962  -0.32592  -0.32186  -0.31115  -0.30528
 Alpha  occ. eigenvalues --   -0.29900  -0.29803  -0.27917  -0.27343  -0.23042
 Alpha  occ. eigenvalues --   -0.21253
 Alpha virt. eigenvalues --   -0.06524  -0.03401   0.00706   0.04389   0.05654
 Alpha virt. eigenvalues --    0.05869   0.05958   0.06707   0.07411   0.07574
 Alpha virt. eigenvalues --    0.07925   0.10734   0.11006   0.11473   0.11695

 Mulliken charges:
               1
     1  Mg   0.817988
     2  C    0.002326
     3  C   -0.210059
     4  C   -0.174733
     5  C   -0.181934
     6  N   -0.646658
     7  C    0.325844
     8  C   -0.186208
     9  C   -0.158084
    10  C    0.340659
    11  C   -0.296609
    12  C   -0.148907
    13  C   -0.275451
    14  C    0.598591
    15  O   -0.446515
    16  O   -0.478587
    17  N   -0.708497
    18  C    0.326683
    19  C   -0.039436
    20  C    0.060968
    21  C    0.294041
    22  C   -0.345551
    23  C   -0.033171
    24  C   -0.270861
    25  N   -0.671205
    26  C    0.318483
    27  C   -0.041250
    28  C    0.014395
    29  C    0.284891
    30  C   -0.373681
    31  C   -0.228061
    32  C   -0.291909
    33  N   -0.711367
    34  C    0.265460
    35  C   -0.016337
    36  C    0.009962
    37  C    0.301987
    38  C   -0.364901
    39  C    0.396496
    40  O   -0.478056
    41  C   -0.300957
    42  C    0.583633
    43  O   -0.495475
    44  O   -0.386516
    45  C   -0.077220
    46  C    0.006033
    47  C   -0.131876
    48  C    0.124624
    49  C   -0.356253
    50  C   -0.234128
    51  C   -0.167275
    52  C   -0.133820
    53  C   -0.083123
    54  C   -0.266101
    55  C   -0.177679
    56  C   -0.165269
    57  C   -0.188707
    58  C   -0.039286
    59  C   -0.301336
    60  C   -0.199024
    61  C   -0.160086
    62  C   -0.136662
    63  C   -0.040708
    64  C   -0.302602
    65  C   -0.279835
    66  H    0.067777
    67  H    0.086986
    68  H    0.094579
    69  H    0.133795
    70  H    0.112794
    71  H    0.127325
    72  H    0.092157
    73  H    0.135260
    74  H    0.121967
    75  H    0.125639
    76  H    0.131957
    77  H    0.112049
    78  H    0.124182
    79  H    0.139734
    80  H    0.107368
    81  H    0.089265
    82  H    0.102806
    83  H    0.084592
    84  H    0.132197
    85  H    0.096867
    86  H    0.136172
    87  H    0.110123
    88  H    0.089567
    89  H    0.095206
    90  H    0.119934
    91  H    0.099909
    92  H    0.126603
    93  H    0.154609
    94  H    0.109465
    95  H    0.165230
    96  H    0.128745
    97  H    0.145200
    98  H    0.083805
    99  H    0.117827
   100  H    0.127385
   101  H    0.092092
   102  H    0.111289
   103  H    0.111651
   104  H    0.138252
   105  H    0.102031
   106  H    0.095495
   107  H    0.096541
   108  H    0.022721
   109  H    0.098334
   110  H    0.066830
   111  H    0.099494
   112  H    0.118334
   113  H    0.079670
   114  H    0.110636
   115  H    0.058412
   116  H    0.059522
   117  H    0.103070
   118  H    0.100980
   119  H    0.073730
   120  H    0.096956
   121  H    0.092032
   122  H    0.046593
   123  H    0.111456
   124  H    0.110267
   125  H    0.083830
   126  H    0.099985
   127  H    0.043685
   128  H    0.097043
   129  H    0.093772
   130  H    0.091677
   131  H    0.043129
   132  H    0.101909
   133  H    0.090939
   134  H    0.103119
   135  H    0.109976
   136  H    0.084376
   137  H    0.059991
 Sum of Mulliken charges =   0.00000

 Dipole moment (field-independent basis, Debye):
    X=              2.4548    Y=              5.3343    Z=             -0.1024  Tot=              5.8729
 Quadrupole moment (field-independent basis, Debye-Ang):
   XX=           -364.4897   YY=           -395.3794   ZZ=           -397.9308
   XY=            -11.6352   XZ=             17.0798   YZ=             -4.4796

 Normal termination of Gaussian 09 at Thu Jun 27 05:43:35 2019.
