 Gaussian 09, Revision D.01,
 Gaussian 09:  ES64L-G09RevD.01 24-Apr-2013

 -------------------------------------
 # td=(NStates=1) CAM-B3LYP/6-31G(d,p)
 -------------------------------------

 --
 TD
 --
 Symbolic Z-matrix:
 Charge =  0 Multiplicity = 1

                         Standard orientation:
 ---------------------------------------------------------------------
 Center     Atomic      Atomic             Coordinates (Angstroms)
 Number     Number       Type             X           Y           Z
 ---------------------------------------------------------------------
      1         12           0       -7.191330    0.539720    0.149476
      2          6           0       -4.793039   -1.810106    0.627761
      3          6           0       -4.893219    2.953290    1.028613
      4          6           0       -9.600282    2.901223   -0.432719
      5          6           0       -9.571493   -1.897223   -0.806463
      6          7           0       -5.201425    0.520849    0.710527
      7          6           0       -4.386610   -0.608372    0.863843
      8          6           0       -2.944954   -0.321483    1.205255
      9          6           0       -3.064379    1.247634    1.565322
     10          6           0       -4.483513    1.628784    1.091928
     11          6           0       -3.013551    1.523831    3.105438
     12          6           0       -1.906899   -0.507369    0.067319
     13          6           0       -0.452515   -0.396537    0.556655
     14          6           0        0.486797   -0.591915   -0.585217
     15          8           0        0.234175   -0.885662   -1.684512
     16          8           0        1.777997   -0.377008   -0.191652
     17          7           0       -7.237119    2.577419    0.417741
     18          6           0       -6.182043    3.393502    0.640119
     19          6           0       -6.684072    4.758037    0.787637
     20          6           0       -8.050165    4.655362    0.416729
     21          6           0       -8.410137    3.359829    0.016845
     22          6           0       -5.879181    5.904598    1.245784
     23          6           0       -8.964208    5.831277    0.441642
     24          6           0       -8.630177    7.134211    0.220498
     25          7           0       -9.211269    0.506440   -0.545738
     26          6           0      -10.015556    1.604428   -0.603668
     27          6           0      -11.278274    1.236312   -1.054766
     28          6           0      -11.221943   -0.113405   -1.248716
     29          6           0       -9.970669   -0.580136   -0.892428
     30          6           0      -12.315419    2.219382   -1.474159
     31          6           0      -12.312309   -1.011425   -1.879031
     32          6           0      -12.205338   -1.206924   -3.407188
     33          7           0       -7.214477   -1.443265   -0.096328
     34          6           0       -8.227974   -2.310813   -0.534176
     35          6           0       -7.740776   -3.636962   -0.358099
     36          6           0       -6.406524   -3.586760   -0.012519
     37          6           0       -6.103542   -2.146054    0.104247
     38          6           0       -8.407282   -4.995185   -0.751255
     39          6           0       -5.245709   -4.325456    0.348581
     40          8           0       -4.893839   -5.530384    0.341773
     41          6           0       -4.139038   -3.115049    0.604150
     42          6           0       -3.363860   -3.489662    1.804315
     43          8           0       -3.522872   -3.004079    2.885629
     44          8           0       -2.495565   -4.564936    1.721047
     45          6           0       -1.925112   -4.988394    2.964434
     46          6           0        2.848976   -0.583208   -1.178191
     47          6           0        4.156198   -0.372402   -0.547160
     48          6           0        5.202310    0.451790   -0.956273
     49          6           0        5.114476    1.245176   -2.252671
     50          6           0        6.475888    0.462309   -0.189044
     51          6           0        7.779209   -0.160073   -0.911804
     52          6           0        9.054485   -0.065485   -0.025147
     53          6           0       10.315229   -0.487083   -0.810265
     54          6           0       10.124948   -1.939016   -1.306167
     55          6           0       11.499493   -0.322444    0.097806
     56          6           0       12.779415   -0.534550   -0.625571
     57          6           0       14.004957   -0.131259    0.228394
     58          6           0       15.263329   -0.211862   -0.390996
     59          6           0       15.711369   -1.698630   -0.855318
     60          6           0       16.474008    0.295531    0.486389
     61          6           0       17.893415    0.444132   -0.148233
     62          6           0       18.821602    1.167959    0.733594
     63          6           0       20.301746    1.373766    0.036318
     64          6           0       20.208495    2.234427   -1.177129
     65          6           0       21.162321    1.964056    1.124150
     66          1           0       -4.182872    3.666554    1.523081
     67          1           0      -10.355434    3.649803   -0.636248
     68          1           0      -10.204916   -2.598664   -1.197144
     69          1           0       -2.568441   -1.014716    2.004135
     70          1           0       -2.204111    1.807970    0.970374
     71          1           0       -2.061999    1.389631    3.443585
     72          1           0       -3.285181    2.589108    3.301158
     73          1           0       -3.628123    0.832488    3.553372
     74          1           0       -2.167077   -1.412511   -0.302659
     75          1           0       -2.237345    0.075682   -0.832780
     76          1           0       -0.124902    0.503642    1.122075
     77          1           0       -0.094208   -1.228557    1.223398
     78          1           0       -5.086265    5.996508    0.444294
     79          1           0       -6.397964    6.680536    1.756217
     80          1           0       -5.243224    5.594596    2.139634
     81          1           0       -9.997354    5.516649    0.736973
     82          1           0       -9.345625    7.969361    0.245530
     83          1           0       -7.585762    7.394244    0.088152
     84          1           0      -12.130089    2.810133   -2.330399
     85          1           0      -13.115717    1.684736   -1.817061
     86          1           0      -12.504048    2.998358   -0.719965
     87          1           0      -12.303944   -1.873179   -1.245202
     88          1           0      -13.064514   -0.457652   -1.623449
     89          1           0      -12.896678   -1.720676   -3.754803
     90          1           0      -12.150071   -0.366361   -4.025996
     91          1           0      -11.207090   -1.701635   -3.639835
     92          1           0       -8.906452   -4.872021   -1.659266
     93          1           0       -7.848944   -5.894893   -1.009305
     94          1           0       -9.252180   -5.027252    0.053045
     95          1           0       -3.480979   -3.477120   -0.198440
     96          1           0       -1.627791   -3.945393    3.558099
     97          1           0       -2.642288   -5.794544    3.358529
     98          1           0       -0.824172   -5.451731    2.570263
     99          1           0        2.636563   -1.708340   -1.469637
    100          1           0        2.694266    0.086423   -2.037632
    101          1           0        4.425767   -0.680144    0.463673
    102          1           0        4.103905    1.303388   -2.693862
    103          1           0        5.418256    2.364239   -2.012153
    104          1           0        5.694077    0.775627   -2.898340
    105          1           0        6.768400    1.536597    0.111829
    106          1           0        6.532749   -0.400572    0.650846
    107          1           0        7.523119   -1.322902   -1.268681
    108          1           0        7.871130    0.523761   -1.904467
    109          1           0        9.086897    1.201741    0.079852
    110          1           0        9.048029   -0.483364    1.063396
    111          1           0       10.323128    0.359586   -1.815929
    112          1           0        9.304668   -2.009217   -2.250072
    113          1           0       11.161713   -2.281871   -1.633664
    114          1           0        9.907209   -2.419867   -0.352321
    115          1           0       11.417614    0.484610    0.609573
    116          1           0       11.296796   -0.821101    1.001903
    117          1           0       12.790203   -1.681716   -0.963830
    118          1           0       12.853189    0.060502   -1.650232
    119          1           0       13.782283    0.982395    0.266556
    120          1           0       14.050720   -0.606089    1.256742
    121          1           0       15.177940    0.512894   -1.331840
    122          1           0       15.889669   -2.133557    0.214500
    123          1           0       14.992138   -2.085651   -1.652530
    124          1           0       16.695291   -1.722203   -1.429195
    125          1           0       16.203683    1.365750    0.837392
    126          1           0       16.463369   -0.503348    1.337388
    127          1           0       18.373568   -0.549462   -0.416040
    128          1           0       17.818578    0.829038   -1.267075
    129          1           0       18.414081    2.148636    1.117231
    130          1           0       18.873747    0.701468    1.710302
    131          1           0       20.660736    0.407190   -0.170217
    132          1           0       19.954098    3.327369   -0.889102
    133          1           0       21.166667    2.137073   -1.668577
    134          1           0       19.510388    1.677654   -2.053833
    135          1           0       21.444789    1.313053    2.051165
    136          1           0       22.112779    2.291074    0.496826
    137          1           0       20.496973    2.912432    1.688943
 ---------------------------------------------------------------------

 SCF Done:  E(RCAM-B3LYP) =  -2932.61877603     A.U. after   17 cycles

 Excitation energies and oscillator strengths:

 Excited State   1:      Singlet-A      2.1373 eV  580.10 nm  f=0.2470  <S**2>=0.000
     240 -> 243        0.23384
     241 -> 242        0.65544
 This state for optimization and/or second-order correction.
 Total Energy, E(TD-HF/TD-KS) =  -2932.54023204
 Copying the excited state density for this state as the 1-particle RhoCI density.

 The electronic state is 1-A.
 Alpha  occ. eigenvalues --  -46.83798 -19.24061 -19.23827 -19.20354 -19.20073
 Alpha  occ. eigenvalues --  -19.19218 -14.41453 -14.40032 -14.39233 -14.38815
 Alpha  occ. eigenvalues --  -10.37918 -10.37534 -10.35508 -10.32711 -10.32299
 Alpha  occ. eigenvalues --  -10.31432 -10.30704 -10.29749 -10.29715 -10.29654
 Alpha  occ. eigenvalues --  -10.29635 -10.28817 -10.28762 -10.28605 -10.28482
 Alpha  occ. eigenvalues --  -10.28187 -10.28177 -10.28160 -10.27916 -10.27868
 Alpha  occ. eigenvalues --  -10.27862 -10.27780 -10.27722 -10.27685 -10.27530
 Alpha  occ. eigenvalues --  -10.27498 -10.27310 -10.27248 -10.27238 -10.27011
 Alpha  occ. eigenvalues --  -10.26935 -10.26598 -10.26508 -10.26465 -10.26422
 Alpha  occ. eigenvalues --  -10.26366 -10.26193 -10.26106 -10.26073 -10.25953
 Alpha  occ. eigenvalues --  -10.25895 -10.25865 -10.25790 -10.25751 -10.25677
 Alpha  occ. eigenvalues --  -10.25437 -10.25265 -10.25252 -10.25196 -10.25181
 Alpha  occ. eigenvalues --  -10.25021 -10.24811 -10.24421 -10.23983 -10.23163
 Alpha  occ. eigenvalues --   -3.12871  -1.87589  -1.87122  -1.87031  -1.17984
 Alpha  occ. eigenvalues --   -1.16732  -1.09014  -1.08439  -1.07484  -1.04592
 Alpha  occ. eigenvalues --   -1.03767  -1.02891  -1.01814  -0.92995  -0.91696
 Alpha  occ. eigenvalues --   -0.90320  -0.90175  -0.89699  -0.89419  -0.88889
 Alpha  occ. eigenvalues --   -0.88562  -0.88495  -0.87779  -0.87385  -0.85712
 Alpha  occ. eigenvalues --   -0.84904  -0.84386  -0.84073  -0.83336  -0.82939
 Alpha  occ. eigenvalues --   -0.81679  -0.81120  -0.80506  -0.79510  -0.78802
 Alpha  occ. eigenvalues --   -0.78549  -0.77830  -0.76049  -0.75770  -0.75635
 Alpha  occ. eigenvalues --   -0.74647  -0.74468  -0.74000  -0.73103  -0.72961
 Alpha  occ. eigenvalues --   -0.72481  -0.71365  -0.70653  -0.68887  -0.68693
 Alpha  occ. eigenvalues --   -0.67274  -0.65778  -0.65091  -0.64737  -0.64365
 Alpha  occ. eigenvalues --   -0.64170  -0.62814  -0.61830  -0.61699  -0.61394
 Alpha  occ. eigenvalues --   -0.60071  -0.59933  -0.59784  -0.59224  -0.58925
 Alpha  occ. eigenvalues --   -0.58375  -0.58045  -0.57751  -0.56712  -0.56176
 Alpha  occ. eigenvalues --   -0.56051  -0.55496  -0.55279  -0.54780  -0.54582
 Alpha  occ. eigenvalues --   -0.54019  -0.53490  -0.53196  -0.53049  -0.52951
 Alpha  occ. eigenvalues --   -0.52777  -0.52395  -0.52228  -0.52014  -0.51739
 Alpha  occ. eigenvalues --   -0.51294  -0.51147  -0.51071  -0.50921  -0.50559
 Alpha  occ. eigenvalues --   -0.50516  -0.50335  -0.50177  -0.50064  -0.49671
 Alpha  occ. eigenvalues --   -0.49304  -0.49156  -0.49107  -0.48859  -0.48301
 Alpha  occ. eigenvalues --   -0.48094  -0.47960  -0.47764  -0.47658  -0.47297
 Alpha  occ. eigenvalues --   -0.47179  -0.46846  -0.46670  -0.46647  -0.46547
 Alpha  occ. eigenvalues --   -0.46272  -0.46086  -0.45916  -0.45613  -0.45256
 Alpha  occ. eigenvalues --   -0.45196  -0.44781  -0.44647  -0.44627  -0.44420
 Alpha  occ. eigenvalues --   -0.44230  -0.43881  -0.43789  -0.43544  -0.43348
 Alpha  occ. eigenvalues --   -0.43204  -0.42947  -0.42374  -0.42172  -0.41802
 Alpha  occ. eigenvalues --   -0.41647  -0.41474  -0.41291  -0.41109  -0.40827
 Alpha  occ. eigenvalues --   -0.40772  -0.40594  -0.40390  -0.40347  -0.40135
 Alpha  occ. eigenvalues --   -0.39771  -0.39667  -0.39471  -0.39300  -0.39197
 Alpha  occ. eigenvalues --   -0.38812  -0.37995  -0.37917  -0.37753  -0.37447
 Alpha  occ. eigenvalues --   -0.37113  -0.36915  -0.36732  -0.36541  -0.36179
 Alpha  occ. eigenvalues --   -0.36002  -0.35315  -0.35264  -0.35069  -0.34974
 Alpha  occ. eigenvalues --   -0.34664  -0.34234  -0.34218  -0.33461  -0.33208
 Alpha  occ. eigenvalues --   -0.32890  -0.32700  -0.31906  -0.31442  -0.29876
 Alpha  occ. eigenvalues --   -0.29540  -0.28572  -0.28227  -0.26753  -0.23913
 Alpha  occ. eigenvalues --   -0.22468
 Alpha virt. eigenvalues --   -0.07237  -0.03158   0.01199   0.04137   0.05049
 Alpha virt. eigenvalues --    0.05968   0.06329   0.06740   0.07150   0.08126
 Alpha virt. eigenvalues --    0.08773   0.10033   0.10891   0.11187   0.11831

 Mulliken charges:
               1
     1  Mg   0.804331
     2  C    0.139212
     3  C   -0.225660
     4  C   -0.183427
     5  C   -0.130857
     6  N   -0.677694
     7  C    0.330391
     8  C   -0.160955
     9  C   -0.168365
    10  C    0.374420
    11  C   -0.299730
    12  C   -0.172600
    13  C   -0.272825
    14  C    0.605437
    15  O   -0.447466
    16  O   -0.517977
    17  N   -0.703582
    18  C    0.327813
    19  C    0.037184
    20  C   -0.019107
    21  C    0.320006
    22  C   -0.387961
    23  C   -0.082585
    24  C   -0.250338
    25  N   -0.701296
    26  C    0.312428
    27  C    0.026884
    28  C   -0.055743
    29  C    0.318333
    30  C   -0.370930
    31  C   -0.213273
    32  C   -0.304349
    33  N   -0.713874
    34  C    0.240029
    35  C   -0.024601
    36  C    0.061463
    37  C    0.245733
    38  C   -0.357967
    39  C    0.341609
    40  O   -0.483540
    41  C   -0.372821
    42  C    0.615590
    43  O   -0.474842
    44  O   -0.474738
    45  C   -0.066169
    46  C    0.031407
    47  C   -0.119667
    48  C    0.108744
    49  C   -0.356177
    50  C   -0.226043
    51  C   -0.174689
    52  C   -0.162487
    53  C   -0.037586
    54  C   -0.286767
    55  C   -0.149220
    56  C   -0.170377
    57  C   -0.145921
    58  C   -0.070471
    59  C   -0.302505
    60  C   -0.164804
    61  C   -0.161880
    62  C   -0.174110
    63  C   -0.050306
    64  C   -0.286920
    65  C   -0.279053
    66  H    0.083680
    67  H    0.096138
    68  H    0.100116
    69  H    0.128474
    70  H    0.096248
    71  H    0.114942
    72  H    0.098914
    73  H    0.136888
    74  H    0.126038
    75  H    0.116320
    76  H    0.142901
    77  H    0.145333
    78  H    0.135514
    79  H    0.137680
    80  H    0.109306
    81  H    0.090022
    82  H    0.108198
    83  H    0.109664
    84  H    0.128947
    85  H    0.113273
    86  H    0.114318
    87  H    0.104993
    88  H    0.111563
    89  H    0.119670
    90  H    0.114897
    91  H    0.095398
    92  H    0.126788
    93  H    0.150815
    94  H    0.116188
    95  H    0.169181
    96  H    0.123009
    97  H    0.139306
    98  H    0.091090
    99  H    0.115252
   100  H    0.120057
   101  H    0.089933
   102  H    0.110848
   103  H    0.097556
   104  H    0.141896
   105  H    0.096058
   106  H    0.094004
   107  H    0.080570
   108  H    0.079552
   109  H    0.059779
   110  H    0.088478
   111  H    0.037960
   112  H    0.093651
   113  H    0.096615
   114  H    0.105509
   115  H    0.098834
   116  H    0.087377
   117  H    0.080546
   118  H    0.084469
   119  H    0.094498
   120  H    0.078530
   121  H    0.054904
   122  H    0.089672
   123  H    0.101011
   124  H    0.099124
   125  H    0.078916
   126  H    0.072991
   127  H    0.083954
   128  H    0.078394
   129  H    0.077146
   130  H    0.093159
   131  H    0.099464
   132  H    0.106584
   133  H    0.106589
   134  H    0.079206
   135  H    0.101560
   136  H    0.080398
   137  H    0.062383
 Sum of Mulliken charges =   0.00000

 Dipole moment (field-independent basis, Debye):
    X=              0.1162    Y=              5.4711    Z=             -0.5185  Tot=              5.4968
 Quadrupole moment (field-independent basis, Debye-Ang):
   XX=           -310.1644   YY=           -400.3242   ZZ=           -396.7036
   XY=            -23.6972   XZ=             18.1287   YZ=              4.9856

 Normal termination of Gaussian 09 at Fri Jun 28 07:09:44 2019.
