 Gaussian 09, Revision D.01,
 Gaussian 09:  ES64L-G09RevD.01 24-Apr-2013

 -------------------------------------
 # td=(NStates=1) CAM-B3LYP/6-31G(d,p)
 -------------------------------------

 --
 TD
 --
 Symbolic Z-matrix:
 Charge =  0 Multiplicity = 1

                         Standard orientation:
 ---------------------------------------------------------------------
 Center     Atomic      Atomic             Coordinates (Angstroms)
 Number     Number       Type             X           Y           Z
 ---------------------------------------------------------------------
      1         12           0       -7.068294    0.579124   -0.030764
      2          6           0       -4.800517   -1.967318    0.467928
      3          6           0       -4.803119    2.726618    1.355110
      4          6           0       -9.307226    3.099546   -0.368191
      5          6           0       -9.488306   -1.727319   -0.853237
      6          7           0       -5.102377    0.424940    0.860279
      7          6           0       -4.383835   -0.739507    0.903858
      8          6           0       -2.905878   -0.385664    1.323108
      9          6           0       -3.032647    1.029459    1.813977
     10          6           0       -4.409469    1.393412    1.320778
     11          6           0       -2.967572    1.121799    3.255843
     12          6           0       -1.932640   -0.575035    0.123272
     13          6           0       -0.450874   -0.362444    0.541790
     14          6           0        0.545421   -0.506173   -0.577731
     15          8           0        0.251890   -0.896154   -1.649860
     16          8           0        1.709261   -0.268558   -0.135421
     17          7           0       -7.045402    2.528452    0.363365
     18          6           0       -6.105673    3.312871    0.867527
     19          6           0       -6.422106    4.769228    0.917156
     20          6           0       -7.675296    4.778409    0.387429
     21          6           0       -8.081044    3.482477    0.125206
     22          6           0       -5.534066    5.822374    1.426085
     23          6           0       -8.617376    5.920152    0.329204
     24          6           0       -8.206329    7.178730    0.126730
     25          7           0       -9.029490    0.674498   -0.569052
     26          6           0       -9.867257    1.817525   -0.654747
     27          6           0      -11.142369    1.518490   -1.160855
     28          6           0      -11.184987    0.083740   -1.343899
     29          6           0       -9.879733   -0.441800   -0.805121
     30          6           0      -12.188462    2.439737   -1.492233
     31          6           0      -12.303699   -0.756129   -1.739561
     32          6           0      -12.270742   -0.967271   -3.293653
     33          7           0       -7.194158   -1.420886   -0.225513
     34          6           0       -8.185636   -2.309275   -0.479347
     35          6           0       -7.779665   -3.684008   -0.462544
     36          6           0       -6.492479   -3.609195   -0.197843
     37          6           0       -6.206437   -2.272790    0.008650
     38          6           0       -8.608228   -4.887075   -0.746978
     39          6           0       -5.253651   -4.411139    0.122667
     40          8           0       -4.987464   -5.613379    0.043757
     41          6           0       -4.156433   -3.374635    0.529206
     42          6           0       -3.566543   -3.656220    1.874114
     43          8           0       -3.826984   -3.125160    2.894536
     44          8           0       -2.608503   -4.636534    1.784490
     45          6           0       -1.943742   -4.999960    3.051286
     46          6           0        2.743152   -0.497070   -1.195176
     47          6           0        4.064389   -0.360827   -0.572059
     48          6           0        5.108726    0.446420   -1.066889
     49          6           0        4.962757    1.243404   -2.287254
     50          6           0        6.388955    0.459196   -0.259588
     51          6           0        7.549937   -0.187725   -0.994420
     52          6           0        8.839366   -0.052889   -0.167882
     53          6           0       10.117191   -0.558805   -1.012265
     54          6           0        9.870693   -2.030203   -1.458291
     55          6           0       11.370600   -0.424572   -0.116890
     56          6           0       12.731666   -0.596743   -0.812940
     57          6           0       13.864097   -0.214417    0.135767
     58          6           0       15.250661   -0.251326   -0.528246
     59          6           0       15.635983   -1.605035   -1.030448
     60          6           0       16.252044    0.376700    0.416920
     61          6           0       17.731638    0.550550   -0.174173
     62          6           0       18.681657    1.200886    0.752688
     63          6           0       20.222064    1.351086    0.225937
     64          6           0       20.359148    2.288644   -0.926138
     65          6           0       21.120733    1.817014    1.428677
     66          1           0       -4.145523    3.503993    1.683020
     67          1           0      -10.100178    3.918674   -0.621786
     68          1           0      -10.382175   -2.374928   -1.045811
     69          1           0       -2.689973   -0.996068    2.290044
     70          1           0       -2.306867    1.624461    1.416271
     71          1           0       -2.046673    0.862110    3.662897
     72          1           0       -3.174621    2.075917    3.864342
     73          1           0       -3.688273    0.445364    3.704979
     74          1           0       -2.259788   -1.586814   -0.558033
     75          1           0       -2.289841    0.027202   -0.666253
     76          1           0       -0.233110    0.477220    1.252821
     77          1           0       -0.029799   -1.187535    1.202764
     78          1           0       -4.787860    6.191536    0.751772
     79          1           0       -5.808878    6.891591    1.954319
     80          1           0       -4.881024    5.424436    2.342847
     81          1           0       -9.772227    5.765920    0.415896
     82          1           0       -9.030721    7.963416   -0.013894
     83          1           0       -7.207499    7.370245   -0.063582
     84          1           0      -11.973958    3.091262   -2.412593
     85          1           0      -13.019836    1.972092   -1.791048
     86          1           0      -12.317345    3.121160   -0.763976
     87          1           0      -12.374841   -1.587216   -1.228733
     88          1           0      -13.212729    0.105972   -1.588275
     89          1           0      -13.223932   -1.508811   -3.390834
     90          1           0      -12.313858    0.008302   -3.529408
     91          1           0      -11.438705   -1.531835   -3.590852
     92          1           0       -9.105864   -4.778705   -1.720276
     93          1           0       -8.085259   -5.644427   -0.670562
     94          1           0       -9.508829   -5.257456    0.089340
     95          1           0       -3.549695   -3.537457   -0.076684
     96          1           0       -1.543265   -4.117290    3.541688
     97          1           0       -2.501306   -5.359881    3.706564
     98          1           0       -1.053485   -5.723396    2.712278
     99          1           0        2.745583   -1.443520   -1.581688
    100          1           0        2.566096    0.202230   -2.029256
    101          1           0        4.300944   -0.845333    0.316410
    102          1           0        3.969796    1.571843   -2.621830
    103          1           0        5.573530    2.093787   -2.087443
    104          1           0        5.523774    0.703675   -3.207366
    105          1           0        6.548104    1.695487   -0.301754
    106          1           0        6.394882    0.221854    0.872542
    107          1           0        7.339837   -1.318614   -1.186047
    108          1           0        7.877657    0.353692   -1.917659
    109          1           0        8.865208    1.077972   -0.038544
    110          1           0        8.744625   -0.664885    0.740186
    111          1           0       10.179914   -0.010064   -1.982598
    112          1           0        8.986630   -1.924877   -2.012215
    113          1           0       10.762104   -2.507818   -1.900713
    114          1           0        9.502997   -2.689600   -0.706548
    115          1           0       11.467951    0.441715    0.288712
    116          1           0       11.203252   -0.875746    0.906488
    117          1           0       12.815073   -1.592233   -1.188305
    118          1           0       12.757033    0.026416   -1.680793
    119          1           0       13.904016    0.967052    0.222124
    120          1           0       13.807438   -0.936842    1.048097
    121          1           0       15.175326    0.364656   -1.447470
    122          1           0       15.462967   -2.270415   -0.104909
    123          1           0       14.814202   -2.107041   -1.642210
    124          1           0       16.761915   -1.528804   -1.485576
    125          1           0       15.928170    1.355036    0.892070
    126          1           0       16.290538   -0.266691    1.514264
    127          1           0       18.083915   -0.463575   -0.480307
    128          1           0       17.574890    1.130150   -1.307364
    129          1           0       18.441595    2.248651    0.951960
    130          1           0       18.866519    0.490017    1.797409
    131          1           0       20.648711    0.193217    0.043166
    132          1           0       20.124202    3.349484   -0.547368
    133          1           0       21.540077    2.338441   -1.114670
    134          1           0       19.779683    2.169962   -1.713201
    135          1           0       20.968012    1.138584    2.373076
    136          1           0       22.188467    1.755474    1.297124
    137          1           0       21.145181    2.931964    1.714673
 ---------------------------------------------------------------------

 SCF Done:  E(RCAM-B3LYP) =  -2932.55869592     A.U. after   17 cycles

 Excitation energies and oscillator strengths:

 Excited State   1:      Singlet-A      2.1482 eV  577.15 nm  f=0.2619  <S**2>=0.000
     240 -> 242       -0.27492
     240 -> 243       -0.20076
     241 -> 242        0.59587
     241 -> 243       -0.13780
 This state for optimization and/or second-order correction.
 Total Energy, E(TD-HF/TD-KS) =  -2932.47975030
 Copying the excited state density for this state as the 1-particle RhoCI density.

 The electronic state is 1-A.
 Alpha  occ. eigenvalues --  -46.84206 -19.26621 -19.24807 -19.20497 -19.20364
 Alpha  occ. eigenvalues --  -19.19236 -14.40589 -14.39663 -14.39455 -14.39004
 Alpha  occ. eigenvalues --  -10.38145 -10.37416 -10.35520 -10.31349 -10.30922
 Alpha  occ. eigenvalues --  -10.30056 -10.29699 -10.29516 -10.29440 -10.29352
 Alpha  occ. eigenvalues --  -10.28584 -10.28541 -10.28385 -10.28276 -10.28245
 Alpha  occ. eigenvalues --  -10.28185 -10.28135 -10.28023 -10.28001 -10.27917
 Alpha  occ. eigenvalues --  -10.27717 -10.27514 -10.27510 -10.27475 -10.27247
 Alpha  occ. eigenvalues --  -10.27224 -10.27214 -10.27036 -10.26875 -10.26872
 Alpha  occ. eigenvalues --  -10.26810 -10.26790 -10.26701 -10.26695 -10.26589
 Alpha  occ. eigenvalues --  -10.26419 -10.26308 -10.26191 -10.26092 -10.26069
 Alpha  occ. eigenvalues --  -10.25825 -10.25578 -10.25567 -10.25453 -10.25358
 Alpha  occ. eigenvalues --  -10.25081 -10.25010 -10.24665 -10.24497 -10.24497
 Alpha  occ. eigenvalues --  -10.24378 -10.24373 -10.24172 -10.23634 -10.23486
 Alpha  occ. eigenvalues --   -3.13318  -1.88006  -1.87570  -1.87500  -1.20720
 Alpha  occ. eigenvalues --   -1.17237  -1.10055  -1.10033  -1.08529  -1.05933
 Alpha  occ. eigenvalues --   -1.05230  -1.04177  -1.00314  -0.91808  -0.91545
 Alpha  occ. eigenvalues --   -0.90757  -0.90255  -0.90050  -0.89525  -0.89090
 Alpha  occ. eigenvalues --   -0.88522  -0.88491  -0.87925  -0.86894  -0.86321
 Alpha  occ. eigenvalues --   -0.85390  -0.84380  -0.84289  -0.83297  -0.82892
 Alpha  occ. eigenvalues --   -0.81946  -0.81174  -0.80543  -0.79836  -0.78555
 Alpha  occ. eigenvalues --   -0.77914  -0.77679  -0.77010  -0.76092  -0.75597
 Alpha  occ. eigenvalues --   -0.75535  -0.75193  -0.74193  -0.73107  -0.72481
 Alpha  occ. eigenvalues --   -0.71203  -0.70513  -0.69285  -0.68841  -0.68287
 Alpha  occ. eigenvalues --   -0.66882  -0.65852  -0.65079  -0.64746  -0.64393
 Alpha  occ. eigenvalues --   -0.63763  -0.63361  -0.63348  -0.62240  -0.61632
 Alpha  occ. eigenvalues --   -0.61444  -0.61154  -0.60539  -0.59808  -0.59492
 Alpha  occ. eigenvalues --   -0.58890  -0.58794  -0.58495  -0.57899  -0.57506
 Alpha  occ. eigenvalues --   -0.56848  -0.55634  -0.55288  -0.54885  -0.54633
 Alpha  occ. eigenvalues --   -0.54540  -0.54109  -0.53801  -0.53363  -0.53029
 Alpha  occ. eigenvalues --   -0.52980  -0.52727  -0.52631  -0.52555  -0.52257
 Alpha  occ. eigenvalues --   -0.51363  -0.51240  -0.50758  -0.50647  -0.50496
 Alpha  occ. eigenvalues --   -0.50149  -0.49988  -0.49844  -0.49636  -0.49585
 Alpha  occ. eigenvalues --   -0.49187  -0.49063  -0.48734  -0.48476  -0.48224
 Alpha  occ. eigenvalues --   -0.48042  -0.47692  -0.47496  -0.47124  -0.47046
 Alpha  occ. eigenvalues --   -0.46864  -0.46676  -0.46585  -0.46549  -0.46400
 Alpha  occ. eigenvalues --   -0.46164  -0.45464  -0.45282  -0.45170  -0.45037
 Alpha  occ. eigenvalues --   -0.44750  -0.44666  -0.44322  -0.44164  -0.44074
 Alpha  occ. eigenvalues --   -0.43864  -0.43821  -0.43627  -0.43155  -0.43073
 Alpha  occ. eigenvalues --   -0.42976  -0.42811  -0.42810  -0.42360  -0.42209
 Alpha  occ. eigenvalues --   -0.42030  -0.41816  -0.41593  -0.41424  -0.41216
 Alpha  occ. eigenvalues --   -0.41048  -0.40992  -0.40939  -0.40718  -0.40529
 Alpha  occ. eigenvalues --   -0.40497  -0.39967  -0.39848  -0.39499  -0.39313
 Alpha  occ. eigenvalues --   -0.39208  -0.39035  -0.38671  -0.38078  -0.37747
 Alpha  occ. eigenvalues --   -0.37383  -0.37170  -0.37041  -0.36928  -0.36594
 Alpha  occ. eigenvalues --   -0.36486  -0.36042  -0.35860  -0.35839  -0.35197
 Alpha  occ. eigenvalues --   -0.35105  -0.35007  -0.34528  -0.33776  -0.33305
 Alpha  occ. eigenvalues --   -0.33006  -0.32724  -0.31305  -0.31053  -0.30244
 Alpha  occ. eigenvalues --   -0.29914  -0.28566  -0.28427  -0.26848  -0.22337
 Alpha  occ. eigenvalues --   -0.21393
 Alpha virt. eigenvalues --   -0.06450  -0.02166   0.02339   0.04779   0.04991
 Alpha virt. eigenvalues --    0.05107   0.06708   0.07800   0.08252   0.08761
 Alpha virt. eigenvalues --    0.09510   0.10444   0.11107   0.11277   0.11362

 Mulliken charges:
               1
     1  Mg   0.833857
     2  C    0.008823
     3  C   -0.226116
     4  C   -0.225034
     5  C   -0.178311
     6  N   -0.623022
     7  C    0.268298
     8  C   -0.173992
     9  C   -0.108553
    10  C    0.382180
    11  C   -0.324554
    12  C   -0.164659
    13  C   -0.279886
    14  C    0.612995
    15  O   -0.481115
    16  O   -0.451134
    17  N   -0.690892
    18  C    0.297635
    19  C    0.079562
    20  C    0.017541
    21  C    0.305128
    22  C   -0.413517
    23  C   -0.068257
    24  C   -0.236257
    25  N   -0.685422
    26  C    0.299877
    27  C    0.030868
    28  C    0.031683
    29  C    0.280826
    30  C   -0.364942
    31  C   -0.267225
    32  C   -0.285706
    33  N   -0.670773
    34  C    0.209749
    35  C    0.004899
    36  C    0.036791
    37  C    0.252248
    38  C   -0.335633
    39  C    0.360240
    40  O   -0.461586
    41  C   -0.200511
    42  C    0.613643
    43  O   -0.455586
    44  O   -0.482110
    45  C   -0.071549
    46  C    0.005461
    47  C   -0.137829
    48  C    0.117007
    49  C   -0.361967
    50  C   -0.225365
    51  C   -0.171249
    52  C   -0.178763
    53  C   -0.074648
    54  C   -0.316427
    55  C   -0.159467
    56  C   -0.184758
    57  C   -0.175108
    58  C   -0.055464
    59  C   -0.296658
    60  C   -0.150739
    61  C   -0.160549
    62  C   -0.149231
    63  C   -0.044746
    64  C   -0.288744
    65  C   -0.315170
    66  H    0.061012
    67  H    0.080728
    68  H    0.085199
    69  H    0.118338
    70  H    0.107518
    71  H    0.110126
    72  H    0.097425
    73  H    0.125412
    74  H    0.096753
    75  H    0.126818
    76  H    0.128126
    77  H    0.133536
    78  H    0.141324
    79  H    0.115600
    80  H    0.110316
    81  H    0.098606
    82  H    0.098278
    83  H    0.106626
    84  H    0.109646
    85  H    0.112285
    86  H    0.129602
    87  H    0.115853
    88  H    0.074196
    89  H    0.105157
    90  H    0.119707
    91  H    0.122013
    92  H    0.121667
    93  H    0.144796
    94  H    0.078191
    95  H    0.129610
    96  H    0.119556
    97  H    0.142014
    98  H    0.111739
    99  H    0.151597
   100  H    0.124128
   101  H    0.086880
   102  H    0.126994
   103  H    0.114378
   104  H    0.108438
   105  H    0.062545
   106  H    0.110326
   107  H    0.094582
   108  H    0.099636
   109  H    0.090263
   110  H    0.095920
   111  H    0.079828
   112  H    0.106957
   113  H    0.101470
   114  H    0.100029
   115  H    0.100396
   116  H    0.071858
   117  H    0.093793
   118  H    0.095634
   119  H    0.087076
   120  H    0.089281
   121  H    0.083030
   122  H    0.085132
   123  H    0.100144
   124  H    0.090952
   125  H    0.090388
   126  H    0.049486
   127  H    0.102177
   128  H    0.051599
   129  H    0.097728
   130  H    0.065905
   131  H    0.058377
   132  H    0.090381
   133  H    0.089333
   134  H    0.116642
   135  H    0.087910
   136  H    0.105610
   137  H    0.089341
 Sum of Mulliken charges =   0.00000

 Dipole moment (field-independent basis, Debye):
    X=              1.7333    Y=              5.8724    Z=             -0.2785  Tot=              6.1292
 Quadrupole moment (field-independent basis, Debye-Ang):
   XX=           -336.1075   YY=           -393.6496   ZZ=           -396.7781
   XY=            -19.2105   XZ=             12.4430   YZ=             -5.3496

 Normal termination of Gaussian 09 at Sun Jun 30 13:58:05 2019.
