 Gaussian 09, Revision D.01,
 Gaussian 09:  ES64L-G09RevD.01 24-Apr-2013

 -------------------------------------
 # td=(NStates=1) CAM-B3LYP/6-31G(d,p)
 -------------------------------------

 --
 TD
 --
 Symbolic Z-matrix:
 Charge =  0 Multiplicity = 1

                         Standard orientation:
 ---------------------------------------------------------------------
 Center     Atomic      Atomic             Coordinates (Angstroms)
 Number     Number       Type             X           Y           Z
 ---------------------------------------------------------------------
      1         12           0       -7.107849    0.573120    0.161993
      2          6           0       -4.866597   -1.954033    0.387424
      3          6           0       -4.798512    2.823755    1.153512
      4          6           0       -9.491456    3.127102   -0.399372
      5          6           0       -9.484573   -1.792191   -0.815240
      6          7           0       -5.012253    0.487459    0.673548
      7          6           0       -4.347123   -0.698837    0.753179
      8          6           0       -2.907511   -0.407337    1.178565
      9          6           0       -3.019997    1.088441    1.651849
     10          6           0       -4.374388    1.527777    1.220355
     11          6           0       -2.876592    1.275175    3.164058
     12          6           0       -1.935117   -0.527885    0.046332
     13          6           0       -0.456816   -0.422629    0.489250
     14          6           0        0.449650   -0.682317   -0.750316
     15          8           0        0.116697   -1.011491   -1.886672
     16          8           0        1.730559   -0.326789   -0.413729
     17          7           0       -7.144680    2.616438    0.365734
     18          6           0       -6.070675    3.370686    0.782794
     19          6           0       -6.467979    4.750988    1.055401
     20          6           0       -7.776209    4.849587    0.408197
     21          6           0       -8.139835    3.540532    0.068918
     22          6           0       -5.610133    5.872679    1.481875
     23          6           0       -8.635853    6.071687    0.290182
     24          6           0       -8.323321    7.294955    0.139174
     25          7           0       -9.140844    0.694847   -0.405150
     26          6           0       -9.933251    1.794472   -0.598700
     27          6           0      -11.169010    1.538971   -1.118056
     28          6           0      -11.290296    0.151792   -1.193506
     29          6           0       -9.912619   -0.398646   -0.789564
     30          6           0      -12.354417    2.468793   -1.397275
     31          6           0      -12.418346   -0.819265   -1.738762
     32          6           0      -12.159815   -1.301651   -3.169096
     33          7           0       -7.213693   -1.401961   -0.169068
     34          6           0       -8.277028   -2.237742   -0.525726
     35          6           0       -7.816946   -3.620114   -0.542926
     36          6           0       -6.428425   -3.590506   -0.129914
     37          6           0       -6.141058   -2.281211    0.101080
     38          6           0       -8.593409   -4.924068   -0.887539
     39          6           0       -5.294342   -4.334245    0.250718
     40          8           0       -5.077044   -5.545352    0.288901
     41          6           0       -4.076039   -3.303668    0.596895
     42          6           0       -3.497600   -3.636391    1.915815
     43          8           0       -3.716973   -2.989213    3.005366
     44          8           0       -2.798429   -4.860444    1.942402
     45          6           0       -2.239793   -5.194303    3.207584
     46          6           0        2.722224   -0.739630   -1.408472
     47          6           0        4.158023   -0.535506   -0.697670
     48          6           0        5.180386    0.296268   -1.032161
     49          6           0        5.015369    1.266492   -2.261463
     50          6           0        6.478023    0.431910   -0.339463
     51          6           0        7.732969   -0.166940   -1.048327
     52          6           0        8.973601   -0.100061   -0.193559
     53          6           0       10.198420   -0.465086   -1.028008
     54          6           0       10.028701   -2.038825   -1.369861
     55          6           0       11.486280   -0.231376   -0.181306
     56          6           0       12.834601   -0.461208   -0.821044
     57          6           0       14.013714    0.007773    0.021953
     58          6           0       15.366579   -0.183545   -0.540450
     59          6           0       15.616413   -1.611890   -0.836603
     60          6           0       16.423030    0.412389    0.446326
     61          6           0       17.790415    0.472335   -0.146061
     62          6           0       18.766924    1.199764    0.840419
     63          6           0       20.162140    1.407029    0.392643
     64          6           0       20.420476    2.077628   -0.868483
     65          6           0       21.093257    1.996019    1.578470
     66          1           0       -4.077857    3.476063    1.481700
     67          1           0      -10.181210    3.919772   -0.626638
     68          1           0      -10.309359   -2.578499   -1.006649
     69          1           0       -2.766282   -1.072666    1.999118
     70          1           0       -2.283450    1.730362    0.995697
     71          1           0       -1.877656    1.000249    3.493584
     72          1           0       -3.008832    2.148467    3.632764
     73          1           0       -3.815451    0.603890    3.495948
     74          1           0       -2.142103   -1.566054   -0.518359
     75          1           0       -2.199700    0.057724   -0.707395
     76          1           0       -0.222628    0.441838    0.855614
     77          1           0       -0.002802   -1.218468    1.226992
     78          1           0       -5.159302    6.313378    0.494560
     79          1           0       -6.314001    6.655336    1.932634
     80          1           0       -5.038280    5.537262    2.239382
     81          1           0       -9.750139    5.839493    0.384789
     82          1           0       -9.070508    8.065618    0.107613
     83          1           0       -7.253574    7.765766   -0.207357
     84          1           0      -12.431675    3.099919   -2.149873
     85          1           0      -13.354350    1.919830   -1.309986
     86          1           0      -12.517214    3.019847   -0.611525
     87          1           0      -12.517065   -1.720866   -1.173069
     88          1           0      -13.411789   -0.241941   -1.612590
     89          1           0      -12.990470   -1.872269   -3.371650
     90          1           0      -12.157220   -0.587225   -3.989801
     91          1           0      -11.144779   -2.023270   -3.187634
     92          1           0       -9.099991   -4.863309   -1.865788
     93          1           0       -7.827318   -5.682360   -0.571266
     94          1           0       -9.354195   -4.885740   -0.038985
     95          1           0       -3.405895   -3.330118   -0.125127
     96          1           0       -1.241617   -4.821058    3.647841
     97          1           0       -2.918504   -5.504378    4.004472
     98          1           0       -1.862494   -6.151823    2.848865
     99          1           0        2.556301   -1.787887   -1.693559
    100          1           0        2.617682   -0.100892   -2.333576
    101          1           0        4.067674   -1.058439    0.289331
    102          1           0        4.038133    1.314556   -2.522554
    103          1           0        5.401377    2.332924   -2.187045
    104          1           0        5.533818    0.716347   -3.179993
    105          1           0        6.773031    1.515657   -0.307890
    106          1           0        6.343527    0.177599    0.634093
    107          1           0        7.570741   -1.200880   -1.503607
    108          1           0        7.983343    0.431640   -1.912891
    109          1           0        9.195933    0.993829    0.187218
    110          1           0        8.567473   -0.592974    0.608785
    111          1           0       10.318672   -0.177908   -2.081319
    112          1           0        9.152378   -2.031205   -1.995648
    113          1           0       10.929468   -2.556511   -1.655050
    114          1           0        9.905580   -2.645798   -0.478176
    115          1           0       11.630823    0.733967    0.194829
    116          1           0       11.559453   -1.023836    0.710505
    117          1           0       12.979717   -1.523225   -1.002318
    118          1           0       12.999507    0.039731   -1.874712
    119          1           0       13.726878    0.913909    0.217382
    120          1           0       14.068579   -0.754395    0.887338
    121          1           0       15.261244    0.320455   -1.405046
    122          1           0       15.676853   -2.391299   -0.132352
    123          1           0       15.065932   -2.056727   -1.640221
    124          1           0       16.588450   -1.793927   -1.322790
    125          1           0       16.280395    1.501088    0.950085
    126          1           0       16.502550   -0.414751    1.220085
    127          1           0       18.232488   -0.418860   -0.325460
    128          1           0       17.765808    1.091405   -1.094753
    129          1           0       18.310851    2.204731    0.992880
    130          1           0       18.804880    0.648046    1.852697
    131          1           0       20.672390    0.521801    0.474439
    132          1           0       19.904498    3.153765   -0.782655
    133          1           0       21.324059    2.199811   -1.065574
    134          1           0       19.979927    1.603822   -1.781502
    135          1           0       20.877122    1.207655    2.468981
    136          1           0       22.217211    1.930838    1.425085
    137          1           0       20.802283    2.989187    1.943335
 ---------------------------------------------------------------------

 SCF Done:  E(RCAM-B3LYP) =  -2932.63018891     A.U. after   16 cycles

 Excitation energies and oscillator strengths:

 Excited State   1:      Singlet-A      1.9787 eV  626.59 nm  f=0.2286  <S**2>=0.000
     240 -> 242       -0.17958
     240 -> 243       -0.24445
     241 -> 242        0.62037
     241 -> 243       -0.13252
 This state for optimization and/or second-order correction.
 Total Energy, E(TD-HF/TD-KS) =  -2932.55747311
 Copying the excited state density for this state as the 1-particle RhoCI density.

 The electronic state is 1-A.
 Alpha  occ. eigenvalues --  -46.84386 -19.26984 -19.26279 -19.21453 -19.21138
 Alpha  occ. eigenvalues --  -19.20723 -14.41323 -14.39519 -14.39103 -14.39047
 Alpha  occ. eigenvalues --  -10.40239 -10.39594 -10.35857 -10.32750 -10.31197
 Alpha  occ. eigenvalues --  -10.30863 -10.30627 -10.30109 -10.29587 -10.29542
 Alpha  occ. eigenvalues --  -10.29299 -10.29179 -10.28931 -10.28336 -10.28302
 Alpha  occ. eigenvalues --  -10.28213 -10.28152 -10.28150 -10.27985 -10.27937
 Alpha  occ. eigenvalues --  -10.27871 -10.27496 -10.27167 -10.27103 -10.27014
 Alpha  occ. eigenvalues --  -10.27004 -10.26856 -10.26732 -10.26701 -10.26654
 Alpha  occ. eigenvalues --  -10.26557 -10.26272 -10.26233 -10.26115 -10.26095
 Alpha  occ. eigenvalues --  -10.26082 -10.25929 -10.25833 -10.25802 -10.25706
 Alpha  occ. eigenvalues --  -10.25546 -10.25489 -10.25312 -10.25275 -10.25042
 Alpha  occ. eigenvalues --  -10.24986 -10.24609 -10.24537 -10.24525 -10.24386
 Alpha  occ. eigenvalues --  -10.23955 -10.23895 -10.23505 -10.23392 -10.23037
 Alpha  occ. eigenvalues --   -3.13288  -1.88007  -1.87506  -1.87475  -1.17116
 Alpha  occ. eigenvalues --   -1.15876  -1.10637  -1.08492  -1.06401  -1.04615
 Alpha  occ. eigenvalues --   -1.03092  -1.02403  -1.01479  -0.93606  -0.91862
 Alpha  occ. eigenvalues --   -0.90955  -0.90288  -0.89751  -0.88606  -0.88572
 Alpha  occ. eigenvalues --   -0.88166  -0.87871  -0.87149  -0.86706  -0.85872
 Alpha  occ. eigenvalues --   -0.85423  -0.84639  -0.84489  -0.83279  -0.82843
 Alpha  occ. eigenvalues --   -0.81877  -0.81315  -0.80780  -0.80048  -0.78357
 Alpha  occ. eigenvalues --   -0.78025  -0.77780  -0.76742  -0.76452  -0.76228
 Alpha  occ. eigenvalues --   -0.75933  -0.75256  -0.74085  -0.73264  -0.72511
 Alpha  occ. eigenvalues --   -0.72166  -0.71033  -0.69814  -0.69321  -0.68778
 Alpha  occ. eigenvalues --   -0.66829  -0.66356  -0.65268  -0.65021  -0.64622
 Alpha  occ. eigenvalues --   -0.64446  -0.63928  -0.63337  -0.63047  -0.62677
 Alpha  occ. eigenvalues --   -0.61921  -0.60371  -0.60002  -0.59051  -0.58872
 Alpha  occ. eigenvalues --   -0.58364  -0.58189  -0.57602  -0.57352  -0.57005
 Alpha  occ. eigenvalues --   -0.56569  -0.55958  -0.55498  -0.54874  -0.54755
 Alpha  occ. eigenvalues --   -0.54496  -0.54371  -0.53733  -0.53534  -0.53476
 Alpha  occ. eigenvalues --   -0.53243  -0.53033  -0.52729  -0.51983  -0.51649
 Alpha  occ. eigenvalues --   -0.51422  -0.51248  -0.50947  -0.50913  -0.50650
 Alpha  occ. eigenvalues --   -0.50439  -0.50234  -0.50020  -0.49861  -0.49744
 Alpha  occ. eigenvalues --   -0.49382  -0.48919  -0.48812  -0.48257  -0.48167
 Alpha  occ. eigenvalues --   -0.48141  -0.47901  -0.47692  -0.47377  -0.47269
 Alpha  occ. eigenvalues --   -0.47176  -0.46831  -0.46560  -0.46457  -0.46320
 Alpha  occ. eigenvalues --   -0.45965  -0.45479  -0.45381  -0.44997  -0.44807
 Alpha  occ. eigenvalues --   -0.44682  -0.44610  -0.44468  -0.44170  -0.43957
 Alpha  occ. eigenvalues --   -0.43880  -0.43845  -0.43730  -0.43344  -0.43188
 Alpha  occ. eigenvalues --   -0.43059  -0.42841  -0.42578  -0.42459  -0.42412
 Alpha  occ. eigenvalues --   -0.42173  -0.41937  -0.41810  -0.41392  -0.41334
 Alpha  occ. eigenvalues --   -0.40844  -0.40831  -0.40798  -0.40255  -0.39935
 Alpha  occ. eigenvalues --   -0.39854  -0.39729  -0.39375  -0.39248  -0.39200
 Alpha  occ. eigenvalues --   -0.38796  -0.38726  -0.38390  -0.38171  -0.38134
 Alpha  occ. eigenvalues --   -0.37786  -0.37716  -0.37625  -0.37012  -0.36970
 Alpha  occ. eigenvalues --   -0.36762  -0.36007  -0.35725  -0.35480  -0.35309
 Alpha  occ. eigenvalues --   -0.35063  -0.34927  -0.34127  -0.33857  -0.33482
 Alpha  occ. eigenvalues --   -0.33315  -0.33057  -0.32287  -0.31084  -0.30350
 Alpha  occ. eigenvalues --   -0.29497  -0.29362  -0.28477  -0.26748  -0.22974
 Alpha  occ. eigenvalues --   -0.21308
 Alpha virt. eigenvalues --   -0.07071  -0.03454   0.00734   0.03532   0.05108
 Alpha virt. eigenvalues --    0.05670   0.06065   0.06196   0.06903   0.07656
 Alpha virt. eigenvalues --    0.08339   0.10726   0.11325   0.11837   0.12322

 Mulliken charges:
               1
     1  Mg   0.813533
     2  C   -0.006540
     3  C   -0.186857
     4  C   -0.167715
     5  C   -0.206896
     6  N   -0.629843
     7  C    0.280483
     8  C   -0.146892
     9  C   -0.178892
    10  C    0.350532
    11  C   -0.293819
    12  C   -0.169208
    13  C   -0.239483
    14  C    0.592942
    15  O   -0.476359
    16  O   -0.480873
    17  N   -0.690026
    18  C    0.305944
    19  C   -0.015366
    20  C   -0.013203
    21  C    0.293937
    22  C   -0.349752
    23  C   -0.058989
    24  C   -0.248817
    25  N   -0.678023
    26  C    0.312469
    27  C    0.031240
    28  C   -0.011146
    29  C    0.260677
    30  C   -0.371939
    31  C   -0.227485
    32  C   -0.293583
    33  N   -0.753726
    34  C    0.363127
    35  C   -0.026604
    36  C    0.068197
    37  C    0.306441
    38  C   -0.363706
    39  C    0.319310
    40  O   -0.463805
    41  C   -0.263089
    42  C    0.620171
    43  O   -0.497851
    44  O   -0.445229
    45  C   -0.089601
    46  C    0.008305
    47  C   -0.159098
    48  C    0.116679
    49  C   -0.352541
    50  C   -0.227936
    51  C   -0.200667
    52  C   -0.145106
    53  C   -0.074139
    54  C   -0.333404
    55  C   -0.155580
    56  C   -0.202546
    57  C   -0.137698
    58  C   -0.048286
    59  C   -0.349845
    60  C   -0.159067
    61  C   -0.168285
    62  C   -0.168676
    63  C   -0.057828
    64  C   -0.274276
    65  C   -0.322682
    66  H    0.069182
    67  H    0.092816
    68  H    0.096495
    69  H    0.138009
    70  H    0.092386
    71  H    0.106375
    72  H    0.121358
    73  H    0.108105
    74  H    0.096142
    75  H    0.133361
    76  H    0.147867
    77  H    0.130381
    78  H    0.122674
    79  H    0.118377
    80  H    0.121791
    81  H    0.089284
    82  H    0.102593
    83  H    0.089433
    84  H    0.129983
    85  H    0.100354
    86  H    0.132458
    87  H    0.114093
    88  H    0.092884
    89  H    0.114349
    90  H    0.116412
    91  H    0.080016
    92  H    0.140009
    93  H    0.160062
    94  H    0.128992
    95  H    0.165589
    96  H    0.111965
    97  H    0.134418
    98  H    0.124476
    99  H    0.133175
   100  H    0.119926
   101  H    0.091178
   102  H    0.121383
   103  H    0.111563
   104  H    0.101752
   105  H    0.100708
   106  H    0.105117
   107  H    0.099622
   108  H    0.100382
   109  H    0.071471
   110  H    0.114856
   111  H    0.106768
   112  H    0.106134
   113  H    0.102589
   114  H    0.098544
   115  H    0.090042
   116  H    0.077021
   117  H    0.092891
   118  H    0.055768
   119  H    0.088876
   120  H    0.068261
   121  H    0.087542
   122  H    0.111140
   123  H    0.112004
   124  H    0.095350
   125  H    0.077652
   126  H    0.085373
   127  H    0.104347
   128  H    0.085322
   129  H    0.078163
   130  H    0.076996
   131  H    0.100785
   132  H    0.068950
   133  H    0.109542
   134  H    0.092725
   135  H    0.071704
   136  H    0.098156
   137  H    0.102517
 Sum of Mulliken charges =   0.00000

 Dipole moment (field-independent basis, Debye):
    X=              0.8217    Y=              3.0846    Z=             -0.1969  Tot=              3.1983
 Quadrupole moment (field-independent basis, Debye-Ang):
   XX=           -317.3935   YY=           -392.1537   ZZ=           -400.4470
   XY=            -22.6124   XZ=              6.3054   YZ=             -2.4502

 Normal termination of Gaussian 09 at Thu Jun 27 23:08:31 2019.
