 Gaussian 09, Revision D.01,
 Gaussian 09:  ES64L-G09RevD.01 24-Apr-2013

 -------------------------------------
 # td=(NStates=1) CAM-B3LYP/6-31G(d,p)
 -------------------------------------

 --
 TD
 --
 Symbolic Z-matrix:
 Charge =  0 Multiplicity = 1

                         Standard orientation:
 ---------------------------------------------------------------------
 Center     Atomic      Atomic             Coordinates (Angstroms)
 Number     Number       Type             X           Y           Z
 ---------------------------------------------------------------------
      1         12           0       -7.107988    0.590267    0.025030
      2          6           0       -4.808111   -1.988070    0.549771
      3          6           0       -4.857977    2.816491    1.278268
      4          6           0       -9.373153    3.113286   -0.342994
      5          6           0       -9.420530   -1.668575   -1.084562
      6          7           0       -5.089922    0.462701    0.663474
      7          6           0       -4.352633   -0.656839    0.683942
      8          6           0       -2.960108   -0.469752    1.204531
      9          6           0       -3.036542    1.033014    1.741217
     10          6           0       -4.407907    1.476979    1.201491
     11          6           0       -3.021147    1.132874    3.264151
     12          6           0       -1.843789   -0.556982    0.053340
     13          6           0       -0.444783   -0.516864    0.540539
     14          6           0        0.525147   -0.766867   -0.563903
     15          8           0        0.225048   -1.133925   -1.704748
     16          8           0        1.753398   -0.656136   -0.190336
     17          7           0       -7.089746    2.695308    0.278158
     18          6           0       -5.995238    3.421800    0.841017
     19          6           0       -6.433555    4.749892    0.895764
     20          6           0       -7.743141    4.815591    0.534108
     21          6           0       -8.125345    3.535644    0.073512
     22          6           0       -5.602697    5.806175    1.463788
     23          6           0       -8.650071    5.916254    0.462820
     24          6           0       -8.326961    7.135672    0.247744
     25          7           0       -8.975873    0.636925   -0.541473
     26          6           0       -9.737459    1.775108   -0.725011
     27          6           0      -11.132988    1.485450   -1.154059
     28          6           0      -11.200976    0.141919   -1.344238
     29          6           0       -9.911986   -0.327741   -0.993038
     30          6           0      -12.260954    2.565461   -1.445655
     31          6           0      -12.305051   -0.687651   -1.911996
     32          6           0      -12.218677   -1.042383   -3.396964
     33          7           0       -7.123493   -1.349552   -0.235590
     34          6           0       -8.208332   -2.100770   -0.702164
     35          6           0       -7.737035   -3.507679   -0.537887
     36          6           0       -6.429439   -3.519252   -0.157589
     37          6           0       -6.128254   -2.211841    0.035739
     38          6           0       -8.626121   -4.696796   -0.824818
     39          6           0       -5.284429   -4.371081    0.240580
     40          8           0       -5.133503   -5.570310    0.245026
     41          6           0       -4.151515   -3.291563    0.576083
     42          6           0       -3.584881   -3.574663    1.988191
     43          8           0       -3.822680   -3.077031    3.010658
     44          8           0       -2.749138   -4.681275    1.940293
     45          6           0       -2.295623   -5.115032    3.184244
     46          6           0        2.833761   -0.788119   -1.193278
     47          6           0        4.219119   -0.567944   -0.487698
     48          6           0        5.128534    0.169775   -0.905284
     49          6           0        5.006513    0.860313   -2.271335
     50          6           0        6.394676    0.393244   -0.077989
     51          6           0        7.667360   -0.085446   -0.851013
     52          6           0        8.908275   -0.123789   -0.030685
     53          6           0       10.168165   -0.506347   -0.850910
     54          6           0       10.063837   -1.968160   -1.428478
     55          6           0       11.478674   -0.334006    0.022336
     56          6           0       12.741917   -0.553608   -0.630945
     57          6           0       13.941124   -0.209910    0.201384
     58          6           0       15.353645   -0.296365   -0.492969
     59          6           0       15.578777   -1.612247   -0.981086
     60          6           0       16.316912    0.371487    0.500051
     61          6           0       17.717819    0.502344   -0.166851
     62          6           0       18.678922    1.407234    0.738828
     63          6           0       20.104146    1.483470    0.096682
     64          6           0       20.268727    2.253652   -1.118577
     65          6           0       21.187542    2.165255    1.147759
     66          1           0       -4.076149    3.566774    1.671662
     67          1           0      -10.232199    3.889275   -0.653653
     68          1           0      -10.396858   -2.312516   -1.404677
     69          1           0       -2.641054   -1.076035    1.930545
     70          1           0       -2.299921    1.861306    1.205301
     71          1           0       -1.954368    0.893821    3.827125
     72          1           0       -3.304138    2.081149    3.570668
     73          1           0       -3.710051    0.407696    3.659976
     74          1           0       -1.953647   -1.560836   -0.415319
     75          1           0       -2.151262    0.273384   -0.566297
     76          1           0        0.064887    0.407449    1.145379
     77          1           0       -0.417144   -1.428816    1.199941
     78          1           0       -4.705959    6.293580    0.961498
     79          1           0       -6.243777    6.681615    1.585520
     80          1           0       -5.142468    5.373230    2.376109
     81          1           0       -9.819549    5.666359    0.672257
     82          1           0       -9.067902    7.818945   -0.110180
     83          1           0       -7.352438    7.507101   -0.199581
     84          1           0      -12.164423    3.019422   -2.449408
     85          1           0      -13.282044    1.913147   -1.361981
     86          1           0      -12.306157    3.284870   -0.677676
     87          1           0      -12.286834   -1.594805   -1.412301
     88          1           0      -13.292456   -0.191085   -1.527832
     89          1           0      -12.866171   -2.033329   -3.579096
     90          1           0      -12.584296   -0.334612   -4.051679
     91          1           0      -11.248163   -1.301769   -3.535300
     92          1           0       -9.416117   -4.671438   -1.834468
     93          1           0       -8.110339   -5.572006   -1.047099
     94          1           0       -9.335691   -4.638384    0.012120
     95          1           0       -3.517093   -3.629458   -0.300517
     96          1           0       -1.559174   -4.584901    3.678536
     97          1           0       -3.150957   -5.178261    3.946400
     98          1           0       -1.617158   -5.918706    3.033050
     99          1           0        2.894101   -1.772772   -1.538846
    100          1           0        2.657310   -0.288557   -1.990439
    101          1           0        4.262634   -1.070120    0.492814
    102          1           0        3.947827    1.051889   -2.444995
    103          1           0        5.664326    1.752188   -2.417806
    104          1           0        5.576659    0.243416   -2.988878
    105          1           0        6.444845    1.350596    0.173358
    106          1           0        6.475369   -0.185494    0.742993
    107          1           0        7.412204   -1.093363   -1.269699
    108          1           0        7.801723    0.697143   -1.613230
    109          1           0        9.128207    1.063684    0.537514
    110          1           0        8.689653   -0.696575    0.922087
    111          1           0       10.292661    0.337228   -1.683663
    112          1           0        9.237129   -1.800756   -2.077889
    113          1           0       10.882336   -1.947481   -2.155162
    114          1           0       10.224461   -2.753642   -0.637892
    115          1           0       11.391109    0.869474    0.158137
    116          1           0       11.340079   -0.809054    0.956693
    117          1           0       12.867073   -1.619543   -1.061039
    118          1           0       12.977970   -0.030443   -1.561315
    119          1           0       13.772360    1.014782    0.421813
    120          1           0       13.902464   -0.965022    1.224481
    121          1           0       15.329282    0.567273   -1.293488
    122          1           0       15.673860   -2.426943   -0.136902
    123          1           0       14.735534   -2.187816   -1.705856
    124          1           0       16.688922   -1.824039   -1.531011
    125          1           0       15.970334    1.335628    0.879210
    126          1           0       16.274346   -0.126439    1.495893
    127          1           0       18.214224   -0.541745   -0.480578
    128          1           0       17.533197    1.092961   -1.237889
    129          1           0       18.260887    2.349194    0.858954
    130          1           0       18.652624    0.894031    1.646901
    131          1           0       20.605078    0.525506   -0.017004
    132          1           0       19.941543    3.223419   -0.975208
    133          1           0       21.372185    2.177082   -1.627656
    134          1           0       19.594298    1.976537   -1.987587
    135          1           0       21.238662    1.796706    2.077967
    136          1           0       22.269523    1.999732    0.779071
    137          1           0       21.011050    3.185444    1.282220
 ---------------------------------------------------------------------

 SCF Done:  E(RCAM-B3LYP) =  -2932.62722423     A.U. after   18 cycles

 Excitation energies and oscillator strengths:

 Excited State   1:      Singlet-A      2.0078 eV  617.52 nm  f=0.2085  <S**2>=0.000
     240 -> 243       -0.26470
     241 -> 242        0.65093
 This state for optimization and/or second-order correction.
 Total Energy, E(TD-HF/TD-KS) =  -2932.55343946
 Copying the excited state density for this state as the 1-particle RhoCI density.

 The electronic state is 1-A.
 Alpha  occ. eigenvalues --  -46.83186 -19.26498 -19.25135 -19.22100 -19.21668
 Alpha  occ. eigenvalues --  -19.19002 -14.42202 -14.39730 -14.39115 -14.38172
 Alpha  occ. eigenvalues --  -10.39425 -10.38194 -10.36440 -10.31468 -10.30926
 Alpha  occ. eigenvalues --  -10.30796 -10.29477 -10.29464 -10.29407 -10.29240
 Alpha  occ. eigenvalues --  -10.29054 -10.29028 -10.28855 -10.28839 -10.28472
 Alpha  occ. eigenvalues --  -10.28457 -10.28376 -10.28147 -10.28006 -10.27835
 Alpha  occ. eigenvalues --  -10.27757 -10.27630 -10.27576 -10.27575 -10.27556
 Alpha  occ. eigenvalues --  -10.27452 -10.26971 -10.26927 -10.26901 -10.26816
 Alpha  occ. eigenvalues --  -10.26799 -10.26552 -10.26510 -10.26501 -10.26395
 Alpha  occ. eigenvalues --  -10.26213 -10.26147 -10.26068 -10.26062 -10.25947
 Alpha  occ. eigenvalues --  -10.25754 -10.25741 -10.25550 -10.25502 -10.25377
 Alpha  occ. eigenvalues --  -10.25207 -10.25115 -10.25100 -10.25032 -10.24936
 Alpha  occ. eigenvalues --  -10.24814 -10.24777 -10.24590 -10.24067 -10.23218
 Alpha  occ. eigenvalues --   -3.12497  -1.87183  -1.86784  -1.86656  -1.19571
 Alpha  occ. eigenvalues --   -1.19075  -1.12409  -1.10682  -1.07059  -1.05610
 Alpha  occ. eigenvalues --   -1.04121  -1.03050  -1.01911  -0.93535  -0.92232
 Alpha  occ. eigenvalues --   -0.91013  -0.90076  -0.89659  -0.89538  -0.89338
 Alpha  occ. eigenvalues --   -0.88652  -0.88188  -0.87447  -0.86865  -0.86630
 Alpha  occ. eigenvalues --   -0.85821  -0.84757  -0.83582  -0.83378  -0.82689
 Alpha  occ. eigenvalues --   -0.81814  -0.81182  -0.80816  -0.80518  -0.78115
 Alpha  occ. eigenvalues --   -0.78075  -0.77374  -0.77056  -0.76575  -0.75476
 Alpha  occ. eigenvalues --   -0.75328  -0.75087  -0.74698  -0.73930  -0.72118
 Alpha  occ. eigenvalues --   -0.71905  -0.70752  -0.70315  -0.68961  -0.68762
 Alpha  occ. eigenvalues --   -0.66722  -0.65995  -0.65706  -0.64876  -0.64366
 Alpha  occ. eigenvalues --   -0.63991  -0.63774  -0.63464  -0.62095  -0.61987
 Alpha  occ. eigenvalues --   -0.61234  -0.60458  -0.60206  -0.59815  -0.59337
 Alpha  occ. eigenvalues --   -0.58746  -0.58640  -0.58061  -0.57246  -0.57115
 Alpha  occ. eigenvalues --   -0.56287  -0.55793  -0.55306  -0.54966  -0.54745
 Alpha  occ. eigenvalues --   -0.54376  -0.54201  -0.54108  -0.53604  -0.53272
 Alpha  occ. eigenvalues --   -0.53079  -0.52683  -0.52658  -0.52250  -0.52129
 Alpha  occ. eigenvalues --   -0.51791  -0.51533  -0.51304  -0.50892  -0.50642
 Alpha  occ. eigenvalues --   -0.50422  -0.50278  -0.50262  -0.50036  -0.49981
 Alpha  occ. eigenvalues --   -0.49519  -0.49345  -0.49003  -0.48677  -0.48592
 Alpha  occ. eigenvalues --   -0.48222  -0.48060  -0.47989  -0.47776  -0.47212
 Alpha  occ. eigenvalues --   -0.47030  -0.46792  -0.46697  -0.46374  -0.46336
 Alpha  occ. eigenvalues --   -0.46131  -0.45687  -0.45335  -0.45233  -0.45078
 Alpha  occ. eigenvalues --   -0.44957  -0.44874  -0.44467  -0.44254  -0.44189
 Alpha  occ. eigenvalues --   -0.43923  -0.43626  -0.43495  -0.43443  -0.43187
 Alpha  occ. eigenvalues --   -0.43098  -0.42880  -0.42681  -0.42677  -0.42640
 Alpha  occ. eigenvalues --   -0.42382  -0.42207  -0.42019  -0.41507  -0.41296
 Alpha  occ. eigenvalues --   -0.40876  -0.40799  -0.40409  -0.40293  -0.39876
 Alpha  occ. eigenvalues --   -0.39796  -0.39698  -0.39196  -0.39179  -0.39018
 Alpha  occ. eigenvalues --   -0.38875  -0.38368  -0.38286  -0.38003  -0.37950
 Alpha  occ. eigenvalues --   -0.37507  -0.37382  -0.37095  -0.36792  -0.36650
 Alpha  occ. eigenvalues --   -0.36427  -0.35674  -0.35587  -0.35540  -0.35384
 Alpha  occ. eigenvalues --   -0.35369  -0.34969  -0.34316  -0.34230  -0.33720
 Alpha  occ. eigenvalues --   -0.32933  -0.32616  -0.32399  -0.31252  -0.31113
 Alpha  occ. eigenvalues --   -0.30472  -0.30117  -0.29081  -0.27126  -0.23399
 Alpha  occ. eigenvalues --   -0.20871
 Alpha virt. eigenvalues --   -0.06196  -0.03613   0.01360   0.04248   0.05910
 Alpha virt. eigenvalues --    0.06429   0.06919   0.07080   0.07498   0.08353
 Alpha virt. eigenvalues --    0.09009   0.10160   0.10395   0.10737   0.10877

 Mulliken charges:
               1
     1  Mg   0.820515
     2  C    0.099861
     3  C   -0.222407
     4  C   -0.185408
     5  C   -0.194610
     6  N   -0.608182
     7  C    0.311320
     8  C   -0.171951
     9  C   -0.141685
    10  C    0.325320
    11  C   -0.300047
    12  C   -0.156506
    13  C   -0.269062
    14  C    0.613851
    15  O   -0.512815
    16  O   -0.462803
    17  N   -0.727242
    18  C    0.343541
    19  C    0.023480
    20  C    0.036930
    21  C    0.332788
    22  C   -0.390777
    23  C   -0.074443
    24  C   -0.260648
    25  N   -0.682485
    26  C    0.287203
    27  C   -0.019620
    28  C    0.074652
    29  C    0.239241
    30  C   -0.359839
    31  C   -0.246304
    32  C   -0.295167
    33  N   -0.756512
    34  C    0.320575
    35  C   -0.056715
    36  C    0.070974
    37  C    0.274875
    38  C   -0.354146
    39  C    0.365437
    40  O   -0.435114
    41  C   -0.359260
    42  C    0.633950
    43  O   -0.432770
    44  O   -0.464599
    45  C   -0.080178
    46  C    0.028002
    47  C   -0.170692
    48  C    0.143358
    49  C   -0.374606
    50  C   -0.213355
    51  C   -0.190980
    52  C   -0.145896
    53  C   -0.078604
    54  C   -0.312025
    55  C   -0.149428
    56  C   -0.166378
    57  C   -0.149597
    58  C   -0.027628
    59  C   -0.293752
    60  C   -0.173260
    61  C   -0.174315
    62  C   -0.172056
    63  C   -0.058965
    64  C   -0.287682
    65  C   -0.329961
    66  H    0.079284
    67  H    0.087915
    68  H    0.091561
    69  H    0.112769
    70  H    0.087432
    71  H    0.082139
    72  H    0.119610
    73  H    0.135090
    74  H    0.125019
    75  H    0.113898
    76  H    0.119492
    77  H    0.137253
    78  H    0.111578
    79  H    0.118764
    80  H    0.113514
    81  H    0.091435
    82  H    0.098810
    83  H    0.101915
    84  H    0.133163
    85  H    0.093596
    86  H    0.130101
    87  H    0.117962
    88  H    0.091245
    89  H    0.081842
    90  H    0.124651
    91  H    0.126182
    92  H    0.078576
    93  H    0.145868
    94  H    0.137969
    95  H    0.177826
    96  H    0.108565
    97  H    0.120413
    98  H    0.113810
    99  H    0.135294
   100  H    0.123409
   101  H    0.092744
   102  H    0.122460
   103  H    0.107689
   104  H    0.127367
   105  H    0.114332
   106  H    0.100044
   107  H    0.105356
   108  H    0.092023
   109  H    0.029982
   110  H    0.086318
   111  H    0.073687
   112  H    0.114967
   113  H    0.108177
   114  H    0.113126
   115  H    0.064949
   116  H    0.098174
   117  H    0.075687
   118  H    0.093050
   119  H    0.058438
   120  H    0.051173
   121  H    0.080429
   122  H    0.095778
   123  H    0.091685
   124  H    0.075216
   125  H    0.099092
   126  H    0.086819
   127  H    0.086059
   128  H    0.064236
   129  H    0.100244
   130  H    0.107884
   131  H    0.093807
   132  H    0.108960
   133  H    0.084274
   134  H    0.085854
   135  H    0.102882
   136  H    0.081029
   137  H    0.102657
 Sum of Mulliken charges =   0.00000

 Dipole moment (field-independent basis, Debye):
    X=              1.4717    Y=              3.5213    Z=              0.0804  Tot=              3.8173
 Quadrupole moment (field-independent basis, Debye-Ang):
   XX=           -344.7343   YY=           -401.4240   ZZ=           -397.7443
   XY=            -18.8278   XZ=             16.1049   YZ=             -4.7051

 Normal termination of Gaussian 09 at Fri Jun 28 02:48:23 2019.
