 Gaussian 09, Revision D.01,
 Gaussian 09:  ES64L-G09RevD.01 24-Apr-2013

 -------------------------------------
 # td=(NStates=1) CAM-B3LYP/6-31G(d,p)
 -------------------------------------

 --
 TD
 --
 Symbolic Z-matrix:
 Charge =  0 Multiplicity = 1

                         Standard orientation:
 ---------------------------------------------------------------------
 Center     Atomic      Atomic             Coordinates (Angstroms)
 Number     Number       Type             X           Y           Z
 ---------------------------------------------------------------------
      1         12           0       -7.141934    0.604449    0.138582
      2          6           0       -4.809690   -1.963507    0.601999
      3          6           0       -4.892277    2.881160    1.110366
      4          6           0       -9.414599    3.104225   -0.420346
      5          6           0       -9.442226   -1.754542   -0.832294
      6          7           0       -5.126205    0.420025    0.752911
      7          6           0       -4.333047   -0.678032    0.758844
      8          6           0       -2.880991   -0.318274    1.198137
      9          6           0       -3.011482    1.262410    1.597482
     10          6           0       -4.395797    1.535970    1.094148
     11          6           0       -2.765173    1.428263    3.070084
     12          6           0       -1.873600   -0.731423    0.077480
     13          6           0       -0.398093   -0.573556    0.606484
     14          6           0        0.546758   -0.797000   -0.477941
     15          8           0        0.291798   -1.225371   -1.632910
     16          8           0        1.863620   -0.403268   -0.115172
     17          7           0       -7.243469    2.591941    0.395526
     18          6           0       -6.128461    3.376814    0.775107
     19          6           0       -6.532523    4.767404    0.821871
     20          6           0       -7.867365    4.898299    0.392479
     21          6           0       -8.135385    3.436570    0.105108
     22          6           0       -5.692013    5.869637    1.462903
     23          6           0       -8.677007    6.025507    0.241700
     24          6           0       -8.293271    7.324055    0.114206
     25          7           0       -9.047708    0.623199   -0.635341
     26          6           0       -9.901074    1.743628   -0.675440
     27          6           0      -11.186697    1.354680   -1.187488
     28          6           0      -11.182363    0.023875   -1.314904
     29          6           0       -9.844054   -0.473758   -0.930737
     30          6           0      -12.332965    2.348121   -1.438077
     31          6           0      -12.180369   -0.878808   -1.871375
     32          6           0      -12.102744   -1.209920   -3.283945
     33          7           0       -7.243928   -1.342627   -0.216650
     34          6           0       -8.210658   -2.325124   -0.505994
     35          6           0       -7.788497   -3.654103   -0.517226
     36          6           0       -6.480811   -3.473940   -0.124467
     37          6           0       -6.239606   -2.233187    0.224517
     38          6           0       -8.494401   -4.893925   -0.921597
     39          6           0       -5.290282   -4.349977    0.246634
     40          8           0       -5.149090   -5.573896    0.199148
     41          6           0       -4.160840   -3.276322    0.668147
     42          6           0       -3.497259   -3.618222    1.906410
     43          8           0       -3.679821   -3.044965    3.002151
     44          8           0       -2.774660   -4.709121    1.794446
     45          6           0       -2.072823   -4.962664    3.088691
     46          6           0        2.887313   -0.659901   -1.091048
     47          6           0        4.108388   -0.392931   -0.423620
     48          6           0        5.115913    0.324338   -0.924273
     49          6           0        5.034905    1.118193   -2.245547
     50          6           0        6.431055    0.472279   -0.231626
     51          6           0        7.564205    0.013065   -0.974068
     52          6           0        8.902225    0.039468   -0.154404
     53          6           0       10.115723   -0.567556   -0.856693
     54          6           0       10.082516   -2.046587   -1.068204
     55          6           0       11.420377   -0.187747    0.022802
     56          6           0       12.706154   -0.572814   -0.624560
     57          6           0       13.952810   -0.267636    0.232933
     58          6           0       15.214913   -0.280089   -0.650536
     59          6           0       15.590522   -1.605907   -1.246684
     60          6           0       16.354162    0.340368    0.302019
     61          6           0       17.782485    0.481607   -0.260617
     62          6           0       18.718941    1.247181    0.650617
     63          6           0       20.176822    1.447340    0.225254
     64          6           0       20.306382    2.297015   -1.153194
     65          6           0       21.011318    1.905268    1.355942
     66          1           0       -4.158740    3.693574    1.465740
     67          1           0       -9.921796    4.026238   -0.689558
     68          1           0      -10.201759   -2.393732   -1.160712
     69          1           0       -2.586238   -0.899813    1.954905
     70          1           0       -2.310772    1.863798    0.981610
     71          1           0       -1.791236    0.880736    3.317698
     72          1           0       -2.762634    2.597893    3.280003
     73          1           0       -3.680372    1.109623    3.700503
     74          1           0       -1.961476   -1.686756   -0.361369
     75          1           0       -1.978923    0.089394   -0.717251
     76          1           0       -0.336389    0.506470    1.113412
     77          1           0       -0.249954   -1.159712    1.447559
     78          1           0       -4.960580    6.393150    0.711226
     79          1           0       -6.322521    6.929061    1.948136
     80          1           0       -5.158035    5.415824    2.151412
     81          1           0       -9.784778    5.717444    0.114323
     82          1           0       -9.006025    7.909332    0.033619
     83          1           0       -7.236339    7.662618    0.240619
     84          1           0      -11.811336    3.434763   -1.927738
     85          1           0      -13.118965    1.657978   -2.066045
     86          1           0      -12.751349    2.608307   -0.385346
     87          1           0      -12.070964   -1.812463   -1.201150
     88          1           0      -13.379780   -0.745425   -1.613400
     89          1           0      -13.202850   -1.707395   -3.531476
     90          1           0      -12.072294   -0.191903   -3.886640
     91          1           0      -11.320523   -1.809922   -3.619726
     92          1           0       -8.762998   -4.541932   -1.770378
     93          1           0       -7.782676   -5.890472   -0.784233
     94          1           0       -9.398745   -5.101544   -0.180222
     95          1           0       -3.462890   -3.346912   -0.131091
     96          1           0       -1.433263   -4.052857    3.531070
     97          1           0       -2.747419   -5.252489    3.784500
     98          1           0       -1.423388   -5.824007    2.733720
     99          1           0        2.829755   -1.710243   -1.409047
    100          1           0        2.861097   -0.074798   -1.873210
    101          1           0        4.112358   -0.772073    0.633102
    102          1           0        4.017833    1.070364   -2.788006
    103          1           0        5.364003    2.077003   -2.239182
    104          1           0        5.730520    0.730521   -2.947517
    105          1           0        6.745470    1.514242   -0.112971
    106          1           0        6.442441   -0.156488    0.881142
    107          1           0        7.456491   -1.201814   -1.090842
    108          1           0        7.811819    0.579272   -1.833564
    109          1           0        9.053223    1.015673    0.323705
    110          1           0        8.931368   -0.797527    0.733546
    111          1           0       10.107954    0.079216   -1.821720
    112          1           0        9.206021   -2.386060   -1.611386
    113          1           0       11.025338   -2.377522   -1.812292
    114          1           0       10.086425   -2.494032   -0.065280
    115          1           0       11.405509    0.830397    0.426131
    116          1           0       11.251378   -0.681590    1.007120
    117          1           0       12.672225   -1.426867   -0.823914
    118          1           0       12.860261    0.186606   -1.418301
    119          1           0       13.569968    0.616557    0.848421
    120          1           0       13.946249   -1.064436    1.139645
    121          1           0       14.985405    0.577840   -1.454888
    122          1           0       15.702191   -2.217910   -0.432307
    123          1           0       14.840908   -2.230120   -1.934737
    124          1           0       16.519511   -1.600308   -1.753823
    125          1           0       15.897088    1.271704    0.728444
    126          1           0       16.286258   -0.435333    1.212206
    127          1           0       18.301541   -0.503094   -0.292413
    128          1           0       17.674725    0.897781   -1.072498
    129          1           0       18.481022    2.223785    0.942799
    130          1           0       18.860968    0.792931    1.640466
    131          1           0       20.415964    0.505937   -0.200935
    132          1           0       19.935272    3.366352   -0.879490
    133          1           0       21.341458    2.279068   -1.429877
    134          1           0       19.541046    1.800086   -1.815947
    135          1           0       20.848678    1.172216    2.105610
    136          1           0       22.068946    1.957193    1.300042
    137          1           0       20.784266    2.942684    1.715892
 ---------------------------------------------------------------------

 SCF Done:  E(RCAM-B3LYP) =  -2932.53853413     A.U. after   18 cycles

 Excitation energies and oscillator strengths:

 Excited State   1:      Singlet-A      2.0617 eV  601.38 nm  f=0.2271  <S**2>=0.000
     240 -> 242       -0.10462
     240 -> 243        0.22436
     241 -> 242        0.65368
 This state for optimization and/or second-order correction.
 Total Energy, E(TD-HF/TD-KS) =  -2932.46276978
 Copying the excited state density for this state as the 1-particle RhoCI density.

 The electronic state is 1-A.
 Alpha  occ. eigenvalues --  -46.83976 -19.27022 -19.25553 -19.21787 -19.21180
 Alpha  occ. eigenvalues --  -19.19754 -14.42717 -14.40039 -14.38983 -14.38537
 Alpha  occ. eigenvalues --  -10.40171 -10.38476 -10.36076 -10.32449 -10.32062
 Alpha  occ. eigenvalues --  -10.31005 -10.30133 -10.30028 -10.29941 -10.29659
 Alpha  occ. eigenvalues --  -10.29215 -10.28867 -10.28513 -10.28408 -10.28396
 Alpha  occ. eigenvalues --  -10.28292 -10.28197 -10.27947 -10.27804 -10.27706
 Alpha  occ. eigenvalues --  -10.27668 -10.27644 -10.27567 -10.27486 -10.27359
 Alpha  occ. eigenvalues --  -10.27359 -10.27249 -10.27067 -10.27020 -10.26760
 Alpha  occ. eigenvalues --  -10.26615 -10.26567 -10.26543 -10.26489 -10.26327
 Alpha  occ. eigenvalues --  -10.26300 -10.26114 -10.26082 -10.26065 -10.26011
 Alpha  occ. eigenvalues --  -10.25986 -10.25914 -10.25875 -10.25869 -10.25524
 Alpha  occ. eigenvalues --  -10.25038 -10.25021 -10.24914 -10.24791 -10.24688
 Alpha  occ. eigenvalues --  -10.24010 -10.23989 -10.23741 -10.23616 -10.22125
 Alpha  occ. eigenvalues --   -3.13155  -1.87843  -1.87389  -1.87361  -1.18646
 Alpha  occ. eigenvalues --   -1.15574  -1.10350  -1.07709  -1.06963  -1.06023
 Alpha  occ. eigenvalues --   -1.04067  -1.02967  -1.01457  -0.92691  -0.92081
 Alpha  occ. eigenvalues --   -0.90751  -0.90386  -0.90203  -0.89818  -0.89454
 Alpha  occ. eigenvalues --   -0.88861  -0.88500  -0.87878  -0.87118  -0.87011
 Alpha  occ. eigenvalues --   -0.86144  -0.84602  -0.83965  -0.83732  -0.82877
 Alpha  occ. eigenvalues --   -0.82153  -0.81572  -0.80957  -0.80568  -0.78702
 Alpha  occ. eigenvalues --   -0.78403  -0.76871  -0.76371  -0.76118  -0.75966
 Alpha  occ. eigenvalues --   -0.75432  -0.74611  -0.74194  -0.73335  -0.72663
 Alpha  occ. eigenvalues --   -0.71638  -0.70732  -0.69911  -0.69391  -0.68514
 Alpha  occ. eigenvalues --   -0.67417  -0.66351  -0.65949  -0.64882  -0.64608
 Alpha  occ. eigenvalues --   -0.64186  -0.63741  -0.62809  -0.62289  -0.62024
 Alpha  occ. eigenvalues --   -0.61502  -0.61036  -0.60164  -0.59941  -0.59195
 Alpha  occ. eigenvalues --   -0.58757  -0.58380  -0.57932  -0.57355  -0.56698
 Alpha  occ. eigenvalues --   -0.56522  -0.56106  -0.55865  -0.55333  -0.55284
 Alpha  occ. eigenvalues --   -0.54993  -0.54708  -0.54281  -0.53510  -0.53101
 Alpha  occ. eigenvalues --   -0.52968  -0.52714  -0.52216  -0.51937  -0.51844
 Alpha  occ. eigenvalues --   -0.51512  -0.51459  -0.51102  -0.50846  -0.50712
 Alpha  occ. eigenvalues --   -0.50615  -0.50299  -0.50086  -0.49673  -0.49554
 Alpha  occ. eigenvalues --   -0.49495  -0.49311  -0.49223  -0.48799  -0.48674
 Alpha  occ. eigenvalues --   -0.48299  -0.48185  -0.47908  -0.47639  -0.47611
 Alpha  occ. eigenvalues --   -0.47255  -0.46939  -0.46315  -0.46183  -0.45777
 Alpha  occ. eigenvalues --   -0.45710  -0.45541  -0.45117  -0.45096  -0.44862
 Alpha  occ. eigenvalues --   -0.44658  -0.44525  -0.44143  -0.43849  -0.43823
 Alpha  occ. eigenvalues --   -0.43746  -0.43522  -0.43425  -0.43238  -0.43108
 Alpha  occ. eigenvalues --   -0.43015  -0.42833  -0.42770  -0.42549  -0.42485
 Alpha  occ. eigenvalues --   -0.42285  -0.42095  -0.41957  -0.41824  -0.41552
 Alpha  occ. eigenvalues --   -0.41349  -0.41228  -0.40886  -0.40705  -0.40565
 Alpha  occ. eigenvalues --   -0.40467  -0.40225  -0.40032  -0.39916  -0.39175
 Alpha  occ. eigenvalues --   -0.38621  -0.38466  -0.38290  -0.38288  -0.38008
 Alpha  occ. eigenvalues --   -0.37503  -0.37305  -0.37026  -0.36835  -0.36526
 Alpha  occ. eigenvalues --   -0.36254  -0.36140  -0.35891  -0.35721  -0.35667
 Alpha  occ. eigenvalues --   -0.35190  -0.34738  -0.34399  -0.34198  -0.33760
 Alpha  occ. eigenvalues --   -0.33184  -0.32899  -0.32891  -0.30422  -0.30145
 Alpha  occ. eigenvalues --   -0.29453  -0.28957  -0.28173  -0.27842  -0.22869
 Alpha  occ. eigenvalues --   -0.21407
 Alpha virt. eigenvalues --   -0.06818  -0.02861   0.01269   0.03284   0.03888
 Alpha virt. eigenvalues --    0.05683   0.06074   0.06711   0.06805   0.07085
 Alpha virt. eigenvalues --    0.08015   0.09952   0.10092   0.11267   0.11364

 Mulliken charges:
               1
     1  Mg   0.812172
     2  C    0.050036
     3  C   -0.235524
     4  C   -0.197316
     5  C   -0.203843
     6  N   -0.634853
     7  C    0.299133
     8  C   -0.158684
     9  C   -0.141341
    10  C    0.327358
    11  C   -0.289126
    12  C   -0.178293
    13  C   -0.287515
    14  C    0.633729
    15  O   -0.483377
    16  O   -0.514728
    17  N   -0.693859
    18  C    0.326213
    19  C   -0.014758
    20  C    0.077166
    21  C    0.322044
    22  C   -0.352175
    23  C   -0.116475
    24  C   -0.200928
    25  N   -0.676924
    26  C    0.268250
    27  C    0.030639
    28  C    0.057058
    29  C    0.324914
    30  C   -0.337663
    31  C   -0.268269
    32  C   -0.268196
    33  N   -0.676308
    34  C    0.257506
    35  C    0.049778
    36  C   -0.039764
    37  C    0.268773
    38  C   -0.354160
    39  C    0.390632
    40  O   -0.460548
    41  C   -0.333953
    42  C    0.634690
    43  O   -0.519669
    44  O   -0.440906
    45  C   -0.083606
    46  C    0.064702
    47  C   -0.149704
    48  C    0.144147
    49  C   -0.390453
    50  C   -0.207602
    51  C   -0.161013
    52  C   -0.168485
    53  C   -0.056462
    54  C   -0.297231
    55  C   -0.205990
    56  C   -0.106052
    57  C   -0.193001
    58  C   -0.061721
    59  C   -0.309079
    60  C   -0.181115
    61  C   -0.153605
    62  C   -0.180031
    63  C   -0.073244
    64  C   -0.310073
    65  C   -0.316880
    66  H    0.083994
    67  H    0.071812
    68  H    0.066964
    69  H    0.121939
    70  H    0.115368
    71  H    0.113785
    72  H    0.091287
    73  H    0.129844
    74  H    0.134640
    75  H    0.108264
    76  H    0.128616
    77  H    0.150722
    78  H    0.111698
    79  H    0.088006
    80  H    0.126484
    81  H    0.092928
    82  H    0.095561
    83  H    0.109608
    84  H    0.092416
    85  H    0.107160
    86  H    0.125425
    87  H    0.100313
    88  H    0.084241
    89  H    0.080062
    90  H    0.095649
    91  H    0.123512
    92  H    0.140641
    93  H    0.140402
    94  H    0.110618
    95  H    0.174112
    96  H    0.120231
    97  H    0.157760
    98  H    0.121093
    99  H    0.122616
   100  H    0.102889
   101  H    0.092135
   102  H    0.108749
   103  H    0.128001
   104  H    0.127852
   105  H    0.094317
   106  H    0.073365
   107  H    0.075842
   108  H    0.102981
   109  H    0.090203
   110  H    0.050876
   111  H    0.063484
   112  H    0.111337
   113  H    0.087167
   114  H    0.107230
   115  H    0.083467
   116  H    0.075085
   117  H    0.087776
   118  H    0.090016
   119  H    0.088509
   120  H    0.059002
   121  H    0.064198
   122  H    0.117811
   123  H    0.089378
   124  H    0.115374
   125  H    0.097155
   126  H    0.067869
   127  H    0.096283
   128  H    0.104611
   129  H    0.089601
   130  H    0.083226
   131  H    0.085012
   132  H    0.081720
   133  H    0.110501
   134  H    0.096625
   135  H    0.107127
   136  H    0.104764
   137  H    0.096257
 Sum of Mulliken charges =   0.00000

 Dipole moment (field-independent basis, Debye):
    X=              2.0361    Y=              4.9354    Z=              1.0473  Tot=              5.4406
 Quadrupole moment (field-independent basis, Debye-Ang):
   XX=           -354.3424   YY=           -390.2016   ZZ=           -400.3776
   XY=            -27.7374   XZ=              5.0873   YZ=             -1.0637

 Normal termination of Gaussian 09 at Sat Jun 29 03:53:55 2019.
