 Gaussian 09, Revision D.01,
 Gaussian 09:  ES64L-G09RevD.01 24-Apr-2013

 -------------------------------------
 # td=(NStates=1) CAM-B3LYP/6-31G(d,p)
 -------------------------------------

 --
 TD
 --
 Symbolic Z-matrix:
 Charge =  0 Multiplicity = 1

                         Standard orientation:
 ---------------------------------------------------------------------
 Center     Atomic      Atomic             Coordinates (Angstroms)
 Number     Number       Type             X           Y           Z
 ---------------------------------------------------------------------
      1         12           0       -7.165902    0.565625    0.155841
      2          6           0       -4.775919   -1.844559    0.446167
      3          6           0       -4.952617    2.975002    1.186188
      4          6           0       -9.630322    2.954321   -0.388934
      5          6           0       -9.513296   -1.813052   -0.820095
      6          7           0       -5.166766    0.568611    0.695338
      7          6           0       -4.329950   -0.657214    0.794838
      8          6           0       -2.948203   -0.164204    1.221057
      9          6           0       -3.033133    1.295359    1.613358
     10          6           0       -4.446972    1.548696    1.094668
     11          6           0       -2.799433    1.568371    3.042318
     12          6           0       -1.880662   -0.605364    0.089645
     13          6           0       -0.516702   -0.379332    0.471938
     14          6           0        0.554517   -0.731949   -0.645340
     15          8           0        0.270432   -1.095176   -1.752161
     16          8           0        1.709537   -0.417360   -0.145721
     17          7           0       -7.264309    2.608350    0.315913
     18          6           0       -6.127028    3.385236    0.745911
     19          6           0       -6.629047    4.729118    0.753575
     20          6           0       -7.956610    4.817709    0.511100
     21          6           0       -8.362152    3.400819    0.204256
     22          6           0       -5.844494    5.905896    1.352163
     23          6           0       -8.785040    5.982409    0.187611
     24          6           0       -8.217093    7.206674   -0.152441
     25          7           0       -9.158646    0.604907   -0.539916
     26          6           0       -9.894218    1.720197   -0.710163
     27          6           0      -11.199846    1.337257   -1.276532
     28          6           0      -11.229296   -0.086076   -1.257776
     29          6           0       -9.882660   -0.606349   -0.867459
     30          6           0      -12.325739    2.347134   -1.384843
     31          6           0      -12.434772   -0.888147   -1.727544
     32          6           0      -12.222709   -1.389922   -3.175050
     33          7           0       -7.160132   -1.386293   -0.104750
     34          6           0       -8.230830   -2.337561   -0.455524
     35          6           0       -7.803101   -3.699152   -0.352324
     36          6           0       -6.445390   -3.542333   -0.040091
     37          6           0       -6.118792   -2.173646    0.082781
     38          6           0       -8.688728   -4.843213   -0.535098
     39          6           0       -5.280707   -4.344623    0.332780
     40          8           0       -5.069234   -5.558974    0.345295
     41          6           0       -4.104937   -3.251530    0.533014
     42          6           0       -3.430077   -3.507382    1.890387
     43          8           0       -3.553687   -2.913982    2.951770
     44          8           0       -2.550495   -4.583801    1.701147
     45          6           0       -1.960718   -5.003752    2.879976
     46          6           0        2.856383   -0.614486   -1.165354
     47          6           0        4.168550   -0.395595   -0.450901
     48          6           0        5.207219    0.310575   -0.869949
     49          6           0        5.037497    1.268195   -2.171152
     50          6           0        6.474001    0.408926   -0.222891
     51          6           0        7.636694   -0.219316   -0.977226
     52          6           0        8.936356   -0.125178   -0.219638
     53          6           0       10.239258   -0.642238   -0.974310
     54          6           0       10.030089   -2.081825   -1.314027
     55          6           0       11.482146   -0.478475   -0.009202
     56          6           0       12.805937   -0.669854   -0.711316
     57          6           0       14.033296   -0.229260    0.165611
     58          6           0       15.331531   -0.210204   -0.549109
     59          6           0       15.777131   -1.647516   -0.992041
     60          6           0       16.406258    0.321721    0.388018
     61          6           0       17.800299    0.507477   -0.162528
     62          6           0       18.844570    1.346689    0.717777
     63          6           0       20.298014    1.417073    0.292064
     64          6           0       20.366138    2.185758   -1.052918
     65          6           0       21.044686    2.213939    1.453120
     66          1           0       -4.124698    3.683331    1.254440
     67          1           0      -10.485546    3.556863   -0.650441
     68          1           0      -10.034613   -2.656943   -1.126002
     69          1           0       -2.810575   -0.878777    2.246042
     70          1           0       -2.461631    1.918202    1.063322
     71          1           0       -1.690311    1.384146    3.235312
     72          1           0       -3.014542    2.593052    3.061629
     73          1           0       -3.583900    0.889193    3.689389
     74          1           0       -2.141360   -1.501051   -0.351087
     75          1           0       -2.210326    0.005247   -0.732713
     76          1           0       -0.076423    0.673899    0.632510
     77          1           0       -0.042442   -0.715924    1.454867
     78          1           0       -5.252524    6.708987    0.621653
     79          1           0       -6.488657    6.701996    1.657839
     80          1           0       -4.851091    5.650944    2.068598
     81          1           0       -9.699118    5.658868    0.523203
     82          1           0       -8.981939    7.992223   -0.275124
     83          1           0       -7.243914    7.578133   -0.087362
     84          1           0      -11.942421    3.229209   -1.996827
     85          1           0      -13.237957    1.881278   -1.643044
     86          1           0      -12.649886    2.661069   -0.305921
     87          1           0      -12.504840   -2.046450   -1.279633
     88          1           0      -13.380736   -0.421890   -1.492965
     89          1           0      -13.023660   -1.906875   -3.690352
     90          1           0      -11.986851   -0.510936   -3.835310
     91          1           0      -11.168529   -2.122225   -3.349470
     92          1           0       -8.970051   -4.685254   -1.592450
     93          1           0       -8.223951   -5.782952   -0.361747
     94          1           0       -9.570104   -5.025848    0.091502
     95          1           0       -3.485136   -3.524950   -0.231883
     96          1           0       -1.388667   -4.252021    3.521669
     97          1           0       -2.814312   -5.565367    3.435123
     98          1           0       -1.412420   -5.807323    2.646665
     99          1           0        2.769976   -1.624927   -1.490059
    100          1           0        2.707894    0.129625   -2.025661
    101          1           0        4.188991   -0.996292    0.614004
    102          1           0        4.101773    1.299992   -2.592775
    103          1           0        5.342917    2.143548   -1.546724
    104          1           0        5.680294    0.915437   -2.993985
    105          1           0        6.628478    1.535986   -0.046729
    106          1           0        6.250392   -0.252286    0.605285
    107          1           0        7.200603   -1.250855   -1.008006
    108          1           0        7.830208    0.284293   -2.039339
    109          1           0        9.210630    0.752464    0.214942
    110          1           0        8.798937   -0.832006    0.654661
    111          1           0       10.316984    0.081382   -1.803403
    112          1           0        9.207159   -2.055732   -2.024162
    113          1           0       10.996609   -2.418302   -1.914717
    114          1           0       10.023572   -2.665076   -0.354217
    115          1           0       11.412831    0.574301    0.265490
    116          1           0       11.296485   -1.023064    0.920727
    117          1           0       12.883769   -1.672817   -1.123053
    118          1           0       12.988308   -0.096640   -1.721156
    119          1           0       14.098008    0.815509    0.617770
    120          1           0       13.917698   -1.094466    0.855776
    121          1           0       15.420235    0.220810   -1.387482
    122          1           0       15.880477   -2.379196   -0.093035
    123          1           0       15.107757   -2.203501   -1.481547
    124          1           0       16.752336   -1.545859   -1.586005
    125          1           0       15.915144    1.229415    0.900604
    126          1           0       16.573962   -0.384359    1.287986
    127          1           0       18.174565   -0.483136   -0.115894
    128          1           0       17.750356    0.923136   -1.202239
    129          1           0       18.350901    2.467151    0.859094
    130          1           0       18.795081    0.682605    1.676121
    131          1           0       20.650414    0.375967    0.201781
    132          1           0       19.895617    3.272723   -1.065764
    133          1           0       21.385802    2.239506   -1.409273
    134          1           0       19.731466    1.676573   -1.910432
    135          1           0       20.863973    1.688831    2.280242
    136          1           0       22.049395    2.306430    1.067537
    137          1           0       20.614238    3.171343    1.562135
 ---------------------------------------------------------------------

 SCF Done:  E(RCAM-B3LYP) =  -2932.61151310     A.U. after   17 cycles

 Excitation energies and oscillator strengths:

 Excited State   1:      Singlet-A      2.0566 eV  602.87 nm  f=0.3295  <S**2>=0.000
     240 -> 243       -0.12896
     241 -> 242        0.68194
 This state for optimization and/or second-order correction.
 Total Energy, E(TD-HF/TD-KS) =  -2932.53593549
 Copying the excited state density for this state as the 1-particle RhoCI density.

 The electronic state is 1-A.
 Alpha  occ. eigenvalues --  -46.83477 -19.26826 -19.25268 -19.21507 -19.20257
 Alpha  occ. eigenvalues --  -19.19038 -14.43622 -14.39814 -14.38684 -14.37819
 Alpha  occ. eigenvalues --  -10.39351 -10.38438 -10.34116 -10.33376 -10.33268
 Alpha  occ. eigenvalues --  -10.31936 -10.30800 -10.30303 -10.29562 -10.28939
 Alpha  occ. eigenvalues --  -10.28539 -10.28410 -10.28063 -10.28006 -10.27923
 Alpha  occ. eigenvalues --  -10.27794 -10.27788 -10.27754 -10.27733 -10.27670
 Alpha  occ. eigenvalues --  -10.27553 -10.27529 -10.27501 -10.27499 -10.27474
 Alpha  occ. eigenvalues --  -10.27465 -10.27376 -10.27331 -10.27231 -10.27143
 Alpha  occ. eigenvalues --  -10.26929 -10.26810 -10.26681 -10.26646 -10.26566
 Alpha  occ. eigenvalues --  -10.26533 -10.26464 -10.26072 -10.26042 -10.26020
 Alpha  occ. eigenvalues --  -10.25958 -10.25927 -10.25472 -10.25396 -10.25338
 Alpha  occ. eigenvalues --  -10.25245 -10.25106 -10.24995 -10.24917 -10.24855
 Alpha  occ. eigenvalues --  -10.24829 -10.24114 -10.24032 -10.23877 -10.23286
 Alpha  occ. eigenvalues --   -3.12646  -1.87350  -1.86870  -1.86841  -1.18714
 Alpha  occ. eigenvalues --   -1.16931  -1.09427  -1.09056  -1.08686  -1.05431
 Alpha  occ. eigenvalues --   -1.02924  -1.02009  -1.00419  -0.92927  -0.91882
 Alpha  occ. eigenvalues --   -0.91208  -0.91063  -0.89743  -0.89578  -0.89259
 Alpha  occ. eigenvalues --   -0.88431  -0.88290  -0.87394  -0.86971  -0.86727
 Alpha  occ. eigenvalues --   -0.85806  -0.84107  -0.83513  -0.83327  -0.82082
 Alpha  occ. eigenvalues --   -0.81607  -0.81445  -0.80785  -0.80103  -0.78288
 Alpha  occ. eigenvalues --   -0.77462  -0.77244  -0.75926  -0.75889  -0.75768
 Alpha  occ. eigenvalues --   -0.75403  -0.74509  -0.74355  -0.73746  -0.73123
 Alpha  occ. eigenvalues --   -0.71843  -0.70809  -0.69719  -0.69472  -0.68265
 Alpha  occ. eigenvalues --   -0.67129  -0.66950  -0.65220  -0.65162  -0.64732
 Alpha  occ. eigenvalues --   -0.64122  -0.63495  -0.62896  -0.62725  -0.61460
 Alpha  occ. eigenvalues --   -0.61430  -0.60918  -0.59984  -0.59326  -0.58822
 Alpha  occ. eigenvalues --   -0.58662  -0.57973  -0.57373  -0.57278  -0.56925
 Alpha  occ. eigenvalues --   -0.56565  -0.55943  -0.54917  -0.54827  -0.54571
 Alpha  occ. eigenvalues --   -0.54477  -0.54015  -0.53729  -0.53428  -0.53306
 Alpha  occ. eigenvalues --   -0.53027  -0.52737  -0.52647  -0.52478  -0.52111
 Alpha  occ. eigenvalues --   -0.51941  -0.51622  -0.51405  -0.51164  -0.51033
 Alpha  occ. eigenvalues --   -0.50734  -0.50561  -0.50165  -0.49936  -0.49668
 Alpha  occ. eigenvalues --   -0.49427  -0.48990  -0.48855  -0.48671  -0.48500
 Alpha  occ. eigenvalues --   -0.48307  -0.48231  -0.48043  -0.47839  -0.47607
 Alpha  occ. eigenvalues --   -0.47314  -0.47198  -0.47107  -0.46808  -0.46487
 Alpha  occ. eigenvalues --   -0.46386  -0.45976  -0.45447  -0.45164  -0.45078
 Alpha  occ. eigenvalues --   -0.44819  -0.44632  -0.44484  -0.44312  -0.43898
 Alpha  occ. eigenvalues --   -0.43819  -0.43487  -0.43281  -0.43247  -0.43144
 Alpha  occ. eigenvalues --   -0.42875  -0.42783  -0.42519  -0.42388  -0.41967
 Alpha  occ. eigenvalues --   -0.41791  -0.41600  -0.41494  -0.41195  -0.41143
 Alpha  occ. eigenvalues --   -0.40887  -0.40637  -0.40604  -0.40451  -0.40433
 Alpha  occ. eigenvalues --   -0.40056  -0.40034  -0.39712  -0.38905  -0.38668
 Alpha  occ. eigenvalues --   -0.38598  -0.38382  -0.38077  -0.37940  -0.37924
 Alpha  occ. eigenvalues --   -0.37519  -0.37446  -0.36910  -0.36773  -0.36769
 Alpha  occ. eigenvalues --   -0.36542  -0.36325  -0.35986  -0.35715  -0.35472
 Alpha  occ. eigenvalues --   -0.35327  -0.34555  -0.34215  -0.33826  -0.33319
 Alpha  occ. eigenvalues --   -0.32734  -0.32459  -0.31909  -0.31569  -0.30642
 Alpha  occ. eigenvalues --   -0.28729  -0.28463  -0.27981  -0.26942  -0.24582
 Alpha  occ. eigenvalues --   -0.20710
 Alpha virt. eigenvalues --   -0.06718  -0.01543   0.01147   0.03245   0.05652
 Alpha virt. eigenvalues --    0.05787   0.06116   0.06373   0.07057   0.08119
 Alpha virt. eigenvalues --    0.08784   0.10428   0.11380   0.11477   0.11710

 Mulliken charges:
               1
     1  Mg   0.806030
     2  C    0.086551
     3  C   -0.204959
     4  C   -0.194520
     5  C   -0.144222
     6  N   -0.593204
     7  C    0.231803
     8  C   -0.190018
     9  C   -0.117410
    10  C    0.324751
    11  C   -0.278876
    12  C   -0.163551
    13  C   -0.276447
    14  C    0.610599
    15  O   -0.485284
    16  O   -0.476423
    17  N   -0.715909
    18  C    0.366833
    19  C    0.025435
    20  C   -0.026920
    21  C    0.306430
    22  C   -0.379691
    23  C   -0.037942
    24  C   -0.245274
    25  N   -0.744109
    26  C    0.404240
    27  C   -0.011800
    28  C    0.010037
    29  C    0.344484
    30  C   -0.371423
    31  C   -0.230637
    32  C   -0.294626
    33  N   -0.734112
    34  C    0.155761
    35  C    0.069732
    36  C   -0.033190
    37  C    0.313266
    38  C   -0.383158
    39  C    0.342356
    40  O   -0.476648
    41  C   -0.306035
    42  C    0.630773
    43  O   -0.475975
    44  O   -0.451002
    45  C   -0.072726
    46  C    0.000132
    47  C   -0.142305
    48  C    0.096713
    49  C   -0.339111
    50  C   -0.223736
    51  C   -0.170378
    52  C   -0.161761
    53  C   -0.081708
    54  C   -0.285758
    55  C   -0.172959
    56  C   -0.201225
    57  C   -0.156421
    58  C   -0.033669
    59  C   -0.325152
    60  C   -0.166624
    61  C   -0.195074
    62  C   -0.150782
    63  C   -0.064238
    64  C   -0.303146
    65  C   -0.295946
    66  H    0.096356
    67  H    0.075111
    68  H    0.082915
    69  H    0.122477
    70  H    0.122378
    71  H    0.116419
    72  H    0.112065
    73  H    0.114636
    74  H    0.135184
    75  H    0.116832
    76  H    0.120878
    77  H    0.127567
    78  H    0.080131
    79  H    0.134814
    80  H    0.097410
    81  H    0.114941
    82  H    0.103170
    83  H    0.120515
    84  H    0.123734
    85  H    0.117673
    86  H    0.114194
    87  H    0.083006
    88  H    0.109766
    89  H    0.111010
    90  H    0.104523
    91  H    0.072804
    92  H    0.125915
    93  H    0.144234
    94  H    0.126320
    95  H    0.172918
    96  H    0.116070
    97  H    0.104084
    98  H    0.122917
    99  H    0.153981
   100  H    0.127108
   101  H    0.079321
   102  H    0.111496
   103  H    0.115496
   104  H    0.123205
   105  H    0.094529
   106  H    0.108469
   107  H    0.106208
   108  H    0.078483
   109  H    0.097037
   110  H    0.072850
   111  H    0.084903
   112  H    0.111980
   113  H    0.078596
   114  H    0.103574
   115  H    0.092203
   116  H    0.093700
   117  H    0.102617
   118  H    0.071929
   119  H    0.083535
   120  H    0.097255
   121  H    0.096236
   122  H    0.076932
   123  H    0.106850
   124  H    0.093701
   125  H    0.065289
   126  H    0.076557
   127  H    0.108167
   128  H    0.081341
   129  H    0.064018
   130  H    0.068673
   131  H    0.090609
   132  H    0.088718
   133  H    0.102117
   134  H    0.088002
   135  H    0.112396
   136  H    0.099756
   137  H    0.109356
 Sum of Mulliken charges =   0.00000

 Dipole moment (field-independent basis, Debye):
    X=              3.4122    Y=              6.7761    Z=              0.4615  Tot=              7.6007
 Quadrupole moment (field-independent basis, Debye-Ang):
   XX=           -343.6544   YY=           -394.3730   ZZ=           -403.4682
   XY=            -32.7573   XZ=              0.7209   YZ=              0.4241

 Normal termination of Gaussian 09 at Thu Jun 27 10:17:34 2019.
