 Gaussian 09, Revision D.01,
 Gaussian 09:  ES64L-G09RevD.01 24-Apr-2013

 -------------------------------------
 # td=(NStates=1) CAM-B3LYP/6-31G(d,p)
 -------------------------------------

 --
 TD
 --
 Symbolic Z-matrix:
 Charge =  0 Multiplicity = 1

                         Standard orientation:
 ---------------------------------------------------------------------
 Center     Atomic      Atomic             Coordinates (Angstroms)
 Number     Number       Type             X           Y           Z
 ---------------------------------------------------------------------
      1         12           0       -7.151907    0.563040    0.123630
      2          6           0       -4.853620   -1.962419    0.394309
      3          6           0       -4.810351    2.810910    1.079319
      4          6           0       -9.449494    3.074598   -0.319821
      5          6           0       -9.617836   -1.762900   -0.695048
      6          7           0       -5.043121    0.491866    0.646242
      7          6           0       -4.341069   -0.689560    0.760727
      8          6           0       -2.865282   -0.300904    1.230582
      9          6           0       -2.921246    1.191034    1.497824
     10          6           0       -4.306606    1.553640    1.059154
     11          6           0       -2.722625    1.586386    2.964683
     12          6           0       -1.916158   -0.703197    0.186383
     13          6           0       -0.421676   -0.472550    0.524801
     14          6           0        0.532136   -0.744438   -0.527968
     15          8           0        0.281864   -1.111052   -1.645590
     16          8           0        1.779566   -0.518932   -0.160516
     17          7           0       -7.146644    2.593956    0.382599
     18          6           0       -6.026062    3.293151    0.719125
     19          6           0       -6.428794    4.676758    0.813856
     20          6           0       -7.698417    4.859072    0.377996
     21          6           0       -8.201362    3.490522    0.094109
     22          6           0       -5.451893    5.927630    1.138539
     23          6           0       -8.619244    6.035544    0.216956
     24          6           0       -8.254146    7.345205    0.035407
     25          7           0       -9.158861    0.685162   -0.449703
     26          6           0       -9.937534    1.781629   -0.557168
     27          6           0      -11.282189    1.448624   -1.035000
     28          6           0      -11.232731    0.036211   -1.163994
     29          6           0       -9.938832   -0.406946   -0.757516
     30          6           0      -12.371685    2.454121   -1.244996
     31          6           0      -12.348751   -0.832684   -1.673568
     32          6           0      -12.146164   -1.298569   -3.101832
     33          7           0       -7.234380   -1.350465   -0.010082
     34          6           0       -8.300840   -2.237226   -0.442460
     35          6           0       -7.903003   -3.562367   -0.469131
     36          6           0       -6.545619   -3.590151   -0.185197
     37          6           0       -6.106699   -2.181250    0.059074
     38          6           0       -8.754429   -4.863702   -0.864927
     39          6           0       -5.431631   -4.345226    0.198688
     40          8           0       -5.261832   -5.565015    0.205922
     41          6           0       -4.193208   -3.316617    0.498440
     42          6           0       -3.491438   -3.570259    1.865930
     43          8           0       -3.599941   -2.950704    2.954134
     44          8           0       -2.769097   -4.740496    1.739114
     45          6           0       -2.059889   -5.242454    2.894237
     46          6           0        2.837639   -0.724543   -1.159305
     47          6           0        4.167100   -0.591451   -0.530452
     48          6           0        5.124820    0.351600   -0.885116
     49          6           0        4.972295    1.270879   -2.140466
     50          6           0        6.439556    0.522712   -0.155366
     51          6           0        7.626692   -0.158831   -1.026156
     52          6           0        8.928192   -0.045832   -0.174631
     53          6           0       10.122120   -0.537090   -0.919179
     54          6           0       10.070276   -1.995843   -1.472014
     55          6           0       11.336246   -0.288903   -0.055966
     56          6           0       12.796874   -0.390464   -0.738915
     57          6           0       13.965101   -0.094644    0.099291
     58          6           0       15.278372   -0.154743   -0.570986
     59          6           0       15.688424   -1.635055   -1.002394
     60          6           0       16.341947    0.326030    0.322460
     61          6           0       17.849190    0.536939   -0.266668
     62          6           0       18.770748    1.179217    0.755469
     63          6           0       20.259554    1.303000    0.368684
     64          6           0       20.359065    2.090533   -0.989892
     65          6           0       21.065323    1.930579    1.488916
     66          1           0       -3.926558    3.300581    1.335244
     67          1           0      -10.275093    3.899692   -0.459391
     68          1           0      -10.408439   -2.572353   -0.987278
     69          1           0       -2.614589   -0.900076    2.118990
     70          1           0       -1.969920    1.677232    0.939520
     71          1           0       -1.766844    1.303643    3.455607
     72          1           0       -2.790601    2.714666    2.989659
     73          1           0       -3.450191    1.067549    3.545480
     74          1           0       -2.033065   -1.800662   -0.066922
     75          1           0       -2.217044   -0.239753   -0.792229
     76          1           0       -0.104892    0.507092    1.171925
     77          1           0       -0.289973   -0.927480    1.499635
     78          1           0       -4.942950    6.207087    0.401660
     79          1           0       -5.887793    6.597538    1.694718
     80          1           0       -4.534158    5.556379    1.776534
     81          1           0       -9.831879    5.593213    0.321781
     82          1           0       -9.054968    8.100855   -0.010541
     83          1           0       -7.113629    7.751031   -0.224432
     84          1           0      -12.211357    2.946048   -2.187906
     85          1           0      -13.309161    2.089027   -1.426202
     86          1           0      -12.437163    3.297346   -0.568049
     87          1           0      -12.464044   -1.806024   -0.985290
     88          1           0      -13.248379   -0.152434   -1.595145
     89          1           0      -13.119777   -1.878967   -3.301277
     90          1           0      -12.154506   -0.493146   -3.803398
     91          1           0      -11.298293   -1.845194   -3.074896
     92          1           0       -8.936510   -4.680107   -1.853304
     93          1           0       -8.024763   -5.665617   -0.633355
     94          1           0       -9.703680   -4.922797   -0.252004
     95          1           0       -3.496960   -3.289109   -0.238523
     96          1           0       -1.041137   -4.592691    3.153118
     97          1           0       -2.881155   -5.356148    3.744569
     98          1           0       -1.791002   -6.279647    2.507848
     99          1           0        2.703901   -1.732102   -1.461070
    100          1           0        2.539724   -0.235006   -2.213321
    101          1           0        4.385306   -1.048255    0.471217
    102          1           0        3.942160    1.151542   -2.554809
    103          1           0        5.254888    2.345382   -1.721100
    104          1           0        5.747219    0.869511   -2.956322
    105          1           0        6.639848    1.586740    0.021268
    106          1           0        6.457023    0.015260    0.966496
    107          1           0        7.420001   -1.241718   -1.240497
    108          1           0        7.629041    0.459304   -1.939460
    109          1           0        9.068873    0.934816    0.249021
    110          1           0        8.991441   -0.822364    0.637958
    111          1           0       10.121176    0.168208   -1.756494
    112          1           0        9.165082   -2.089330   -2.060689
    113          1           0       10.915226   -2.135898   -2.099295
    114          1           0       10.152901   -2.813003   -0.505102
    115          1           0       11.234651    0.637294    0.409146
    116          1           0       11.208632   -1.030042    0.740225
    117          1           0       12.769627   -1.474364   -1.132115
    118          1           0       12.692674    0.292257   -1.569569
    119          1           0       13.836567    0.810322    0.789211
    120          1           0       13.758737   -0.872686    1.015537
    121          1           0       15.202803    0.487117   -1.541160
    122          1           0       15.873109   -2.237170   -0.108690
    123          1           0       15.078955   -2.199364   -1.459220
    124          1           0       16.764739   -1.834968   -1.436484
    125          1           0       16.195405    1.483262    0.650455
    126          1           0       16.399591   -0.200268    1.104413
    127          1           0       18.389198   -0.598326   -0.656980
    128          1           0       17.630265    1.180485   -1.261047
    129          1           0       18.489549    2.163030    1.234887
    130          1           0       18.477896    0.385916    1.571188
    131          1           0       20.456430    0.203327    0.190511
    132          1           0       19.714429    3.086149   -0.707259
    133          1           0       21.484108    2.339825   -0.899568
    134          1           0       20.004906    1.468779   -1.802918
    135          1           0       20.971390    1.138760    2.313385
    136          1           0       22.082198    2.383336    1.255927
    137          1           0       20.453385    2.902721    1.941740
 ---------------------------------------------------------------------

 SCF Done:  E(RCAM-B3LYP) =  -2932.63226139     A.U. after   16 cycles

 Excitation energies and oscillator strengths:

 Excited State   1:      Singlet-A      2.0838 eV  594.98 nm  f=0.2393  <S**2>=0.000
     240 -> 242       -0.11968
     240 -> 243        0.26774
     241 -> 242        0.63341
 This state for optimization and/or second-order correction.
 Total Energy, E(TD-HF/TD-KS) =  -2932.55568216
 Copying the excited state density for this state as the 1-particle RhoCI density.

 The electronic state is 1-A.
 Alpha  occ. eigenvalues --  -46.83442 -19.25992 -19.25511 -19.21367 -19.19885
 Alpha  occ. eigenvalues --  -19.19397 -14.41935 -14.39667 -14.39342 -14.39066
 Alpha  occ. eigenvalues --  -10.40090 -10.38472 -10.34655 -10.33490 -10.32330
 Alpha  occ. eigenvalues --  -10.31893 -10.30571 -10.30268 -10.30224 -10.29856
 Alpha  occ. eigenvalues --  -10.29183 -10.28993 -10.28923 -10.28868 -10.28583
 Alpha  occ. eigenvalues --  -10.28582 -10.28570 -10.28524 -10.28481 -10.28434
 Alpha  occ. eigenvalues --  -10.28425 -10.28294 -10.28124 -10.27930 -10.27916
 Alpha  occ. eigenvalues --  -10.27467 -10.27352 -10.27230 -10.27199 -10.27192
 Alpha  occ. eigenvalues --  -10.27105 -10.27087 -10.26901 -10.26764 -10.26629
 Alpha  occ. eigenvalues --  -10.26564 -10.26344 -10.26315 -10.26258 -10.26249
 Alpha  occ. eigenvalues --  -10.26239 -10.26120 -10.26011 -10.25992 -10.25577
 Alpha  occ. eigenvalues --  -10.25325 -10.25315 -10.25298 -10.25269 -10.24914
 Alpha  occ. eigenvalues --  -10.24850 -10.24528 -10.24492 -10.24379 -10.23873
 Alpha  occ. eigenvalues --   -3.12644  -1.87336  -1.86873  -1.86850  -1.18708
 Alpha  occ. eigenvalues --   -1.15995  -1.09351  -1.08605  -1.07328  -1.04287
 Alpha  occ. eigenvalues --   -1.03249  -1.02485  -1.01281  -0.92976  -0.91547
 Alpha  occ. eigenvalues --   -0.91060  -0.90633  -0.89491  -0.89392  -0.88663
 Alpha  occ. eigenvalues --   -0.88620  -0.87754  -0.87568  -0.86896  -0.86254
 Alpha  occ. eigenvalues --   -0.84829  -0.84136  -0.83623  -0.83024  -0.82280
 Alpha  occ. eigenvalues --   -0.81354  -0.80832  -0.80472  -0.79667  -0.78635
 Alpha  occ. eigenvalues --   -0.78374  -0.77836  -0.76239  -0.76230  -0.75700
 Alpha  occ. eigenvalues --   -0.75433  -0.74711  -0.74468  -0.73730  -0.73056
 Alpha  occ. eigenvalues --   -0.72228  -0.70721  -0.69463  -0.69036  -0.68294
 Alpha  occ. eigenvalues --   -0.67182  -0.66602  -0.65979  -0.64579  -0.64180
 Alpha  occ. eigenvalues --   -0.63627  -0.63504  -0.62917  -0.62376  -0.61442
 Alpha  occ. eigenvalues --   -0.60863  -0.60737  -0.60121  -0.59287  -0.58733
 Alpha  occ. eigenvalues --   -0.58511  -0.57479  -0.57110  -0.56724  -0.56344
 Alpha  occ. eigenvalues --   -0.55889  -0.55437  -0.55305  -0.54836  -0.54404
 Alpha  occ. eigenvalues --   -0.54327  -0.53697  -0.53316  -0.53292  -0.53002
 Alpha  occ. eigenvalues --   -0.52942  -0.52837  -0.52646  -0.52335  -0.51824
 Alpha  occ. eigenvalues --   -0.51395  -0.51384  -0.51237  -0.50768  -0.50645
 Alpha  occ. eigenvalues --   -0.50294  -0.50209  -0.50055  -0.49823  -0.49549
 Alpha  occ. eigenvalues --   -0.49266  -0.49125  -0.49074  -0.48857  -0.48380
 Alpha  occ. eigenvalues --   -0.47908  -0.47710  -0.47620  -0.47416  -0.46972
 Alpha  occ. eigenvalues --   -0.46707  -0.46590  -0.46459  -0.46235  -0.46083
 Alpha  occ. eigenvalues --   -0.45990  -0.45786  -0.45177  -0.45008  -0.44858
 Alpha  occ. eigenvalues --   -0.44538  -0.44416  -0.44156  -0.44016  -0.43764
 Alpha  occ. eigenvalues --   -0.43696  -0.43618  -0.43355  -0.43262  -0.42958
 Alpha  occ. eigenvalues --   -0.42950  -0.42813  -0.42305  -0.42217  -0.42072
 Alpha  occ. eigenvalues --   -0.41956  -0.41545  -0.41314  -0.41073  -0.40886
 Alpha  occ. eigenvalues --   -0.40794  -0.40728  -0.40580  -0.40523  -0.40304
 Alpha  occ. eigenvalues --   -0.40192  -0.39809  -0.39556  -0.39410  -0.39059
 Alpha  occ. eigenvalues --   -0.39018  -0.38620  -0.38442  -0.38373  -0.37924
 Alpha  occ. eigenvalues --   -0.37750  -0.37563  -0.37112  -0.36823  -0.36771
 Alpha  occ. eigenvalues --   -0.36159  -0.35994  -0.35639  -0.35523  -0.35445
 Alpha  occ. eigenvalues --   -0.35259  -0.35039  -0.34420  -0.34025  -0.33736
 Alpha  occ. eigenvalues --   -0.33539  -0.33254  -0.32721  -0.31485  -0.29665
 Alpha  occ. eigenvalues --   -0.29437  -0.28950  -0.28075  -0.27532  -0.23620
 Alpha  occ. eigenvalues --   -0.21373
 Alpha virt. eigenvalues --   -0.06509  -0.03643   0.01024   0.03987   0.04683
 Alpha virt. eigenvalues --    0.05111   0.05937   0.06480   0.07016   0.07423
 Alpha virt. eigenvalues --    0.08244   0.09983   0.10866   0.11174   0.11474

 Mulliken charges:
               1
     1  Mg   0.818777
     2  C    0.048548
     3  C   -0.141154
     4  C   -0.191575
     5  C   -0.177012
     6  N   -0.638702
     7  C    0.296514
     8  C   -0.152563
     9  C   -0.157242
    10  C    0.325934
    11  C   -0.304969
    12  C   -0.170522
    13  C   -0.300888
    14  C    0.644057
    15  O   -0.491704
    16  O   -0.482609
    17  N   -0.716266
    18  C    0.359351
    19  C   -0.060894
    20  C    0.066948
    21  C    0.292952
    22  C   -0.342455
    23  C   -0.066757
    24  C   -0.256326
    25  N   -0.699664
    26  C    0.296229
    27  C    0.037398
    28  C   -0.000193
    29  C    0.323519
    30  C   -0.387686
    31  C   -0.251170
    32  C   -0.284342
    33  N   -0.752659
    34  C    0.257900
    35  C    0.000852
    36  C    0.040189
    37  C    0.259243
    38  C   -0.351047
    39  C    0.331762
    40  O   -0.474139
    41  C   -0.290395
    42  C    0.604780
    43  O   -0.489850
    44  O   -0.447682
    45  C   -0.070360
    46  C    0.010275
    47  C   -0.139852
    48  C    0.104327
    49  C   -0.337057
    50  C   -0.226817
    51  C   -0.182702
    52  C   -0.162692
    53  C   -0.072761
    54  C   -0.299321
    55  C   -0.183356
    56  C   -0.178849
    57  C   -0.159356
    58  C   -0.040296
    59  C   -0.317261
    60  C   -0.157775
    61  C   -0.165547
    62  C   -0.153557
    63  C   -0.062285
    64  C   -0.284849
    65  C   -0.298315
    66  H    0.070921
    67  H    0.081452
    68  H    0.104099
    69  H    0.133325
    70  H    0.104669
    71  H    0.103506
    72  H    0.103766
    73  H    0.134023
    74  H    0.110802
    75  H    0.118553
    76  H    0.120778
    77  H    0.147424
    78  H    0.137588
    79  H    0.131463
    80  H    0.077994
    81  H    0.083384
    82  H    0.111074
    83  H    0.108830
    84  H    0.127714
    85  H    0.121609
    86  H    0.123548
    87  H    0.087576
    88  H    0.094348
    89  H    0.093791
    90  H    0.115367
    91  H    0.116013
    92  H    0.144335
    93  H    0.154668
    94  H    0.119977
    95  H    0.168757
    96  H    0.106329
    97  H    0.132235
    98  H    0.134047
    99  H    0.132426
   100  H    0.123411
   101  H    0.096009
   102  H    0.114347
   103  H    0.105586
   104  H    0.109856
   105  H    0.104462
   106  H    0.079180
   107  H    0.112507
   108  H    0.101033
   109  H    0.097162
   110  H    0.083803
   111  H    0.075808
   112  H    0.107218
   113  H    0.119881
   114  H    0.067052
   115  H    0.089866
   116  H    0.080711
   117  H    0.090098
   118  H    0.092731
   119  H    0.091044
   120  H    0.063784
   121  H    0.080728
   122  H    0.095419
   123  H    0.109752
   124  H    0.088857
   125  H    0.069940
   126  H    0.105233
   127  H    0.044539
   128  H    0.072456
   129  H    0.084705
   130  H    0.074569
   131  H    0.085643
   132  H    0.081392
   133  H    0.092849
   134  H    0.121254
   135  H    0.108409
   136  H    0.104979
   137  H    0.071254
 Sum of Mulliken charges =   0.00000

 Dipole moment (field-independent basis, Debye):
    X=              1.6188    Y=              4.7823    Z=              0.1054  Tot=              5.0499
 Quadrupole moment (field-independent basis, Debye-Ang):
   XX=           -348.5706   YY=           -394.9216   ZZ=           -401.8763
   XY=            -25.8224   XZ=             20.5711   YZ=             -2.2353

 Normal termination of Gaussian 09 at Sun Jun 30 08:03:01 2019.
