 Gaussian 09, Revision D.01,
 Gaussian 09:  ES64L-G09RevD.01 24-Apr-2013

 -------------------------------------
 # td=(NStates=1) CAM-B3LYP/6-31G(d,p)
 -------------------------------------

 --
 TD
 --
 Symbolic Z-matrix:
 Charge =  0 Multiplicity = 1

                         Standard orientation:
 ---------------------------------------------------------------------
 Center     Atomic      Atomic             Coordinates (Angstroms)
 Number     Number       Type             X           Y           Z
 ---------------------------------------------------------------------
      1         12           0       -7.292031    0.526720    0.256823
      2          6           0       -4.908113   -1.916090    0.571051
      3          6           0       -4.863992    2.805197    1.257225
      4          6           0       -9.451860    2.998466   -0.335562
      5          6           0       -9.499590   -1.716711   -0.922463
      6          7           0       -5.133373    0.462713    0.790221
      7          6           0       -4.383371   -0.614529    0.868489
      8          6           0       -2.960689   -0.233077    1.290430
      9          6           0       -3.089103    1.169279    1.754137
     10          6           0       -4.472873    1.509829    1.280814
     11          6           0       -2.871915    1.240743    3.386409
     12          6           0       -2.058009   -0.564930    0.043852
     13          6           0       -0.533524   -0.295564    0.538161
     14          6           0        0.482730   -0.436146   -0.589093
     15          8           0        0.141505   -0.596195   -1.691680
     16          8           0        1.766315   -0.336224   -0.136411
     17          7           0       -7.168285    2.542430    0.391451
     18          6           0       -6.143411    3.221820    0.803052
     19          6           0       -6.469163    4.664351    0.838643
     20          6           0       -7.808749    4.820937    0.281961
     21          6           0       -8.156835    3.400267    0.031493
     22          6           0       -5.710298    5.755711    1.407238
     23          6           0       -8.675111    6.043025    0.232368
     24          6           0       -8.159153    7.280733    0.100428
     25          7           0       -9.157175    0.544686   -0.670602
     26          6           0       -9.918360    1.717868   -0.693817
     27          6           0      -11.272463    1.383277   -1.157451
     28          6           0      -11.272288   -0.052520   -1.238587
     29          6           0       -9.967193   -0.463642   -0.856793
     30          6           0      -12.382432    2.420895   -1.466699
     31          6           0      -12.399351   -0.829030   -1.898383
     32          6           0      -12.182151   -1.017815   -3.318327
     33          7           0       -7.181329   -1.423932   -0.110523
     34          6           0       -8.225642   -2.226256   -0.579128
     35          6           0       -7.733931   -3.620350   -0.549926
     36          6           0       -6.435891   -3.551815   -0.144275
     37          6           0       -6.178300   -2.210018    0.159422
     38          6           0       -8.511690   -4.875061   -1.031838
     39          6           0       -5.215505   -4.314364    0.119352
     40          8           0       -4.943082   -5.502105   -0.009709
     41          6           0       -4.138698   -3.321783    0.625728
     42          6           0       -3.585057   -3.679034    2.000625
     43          8           0       -3.983992   -3.152112    3.060377
     44          8           0       -2.685166   -4.669127    1.836089
     45          6           0       -2.262484   -5.407555    3.050008
     46          6           0        2.722366   -0.499857   -1.170739
     47          6           0        4.223501   -0.448548   -0.579268
     48          6           0        5.132692    0.380914   -1.050861
     49          6           0        5.070110    1.197190   -2.312169
     50          6           0        6.445819    0.527303   -0.285164
     51          6           0        7.720320   -0.134476   -0.999073
     52          6           0        8.954701   -0.208805   -0.189919
     53          6           0       10.216343   -0.641499   -0.934862
     54          6           0       10.062117   -2.123571   -1.275458
     55          6           0       11.437459   -0.348966   -0.031531
     56          6           0       12.818182   -0.564010   -0.760965
     57          6           0       13.975298   -0.055733    0.063237
     58          6           0       15.374357   -0.136600   -0.596796
     59          6           0       15.784481   -1.579933   -0.987525
     60          6           0       16.436221    0.381683    0.388467
     61          6           0       17.864562    0.495307   -0.185976
     62          6           0       18.815297    1.104005    0.702702
     63          6           0       20.310557    1.318490    0.343534
     64          6           0       20.567563    2.029672   -1.036635
     65          6           0       21.082190    1.997438    1.470966
     66          1           0       -4.185761    3.340061    1.717788
     67          1           0      -10.237971    3.743646   -0.264133
     68          1           0      -10.158009   -2.584973   -1.026463
     69          1           0       -2.630192   -0.867340    2.074167
     70          1           0       -2.219254    1.710727    1.285038
     71          1           0       -1.735209    1.297397    3.569343
     72          1           0       -3.170397    2.263802    3.761491
     73          1           0       -3.346020    0.441938    3.849996
     74          1           0       -2.328844   -1.697598   -0.252084
     75          1           0       -2.280752   -0.006292   -0.774843
     76          1           0       -0.537175    0.911024    1.167449
     77          1           0       -0.142360   -0.975428    1.297093
     78          1           0       -5.068283    6.412346    0.799134
     79          1           0       -6.225807    6.587133    1.961818
     80          1           0       -4.837215    5.283248    2.428540
     81          1           0       -9.663789    5.712001    0.096137
     82          1           0       -8.834121    8.129693    0.407339
     83          1           0       -7.237617    7.765487    0.355753
     84          1           0      -12.115959    3.041772   -2.320808
     85          1           0      -13.280006    1.855335   -1.663761
     86          1           0      -12.470017    3.058358   -0.529972
     87          1           0      -12.420378   -1.844999   -1.355514
     88          1           0      -13.381616   -0.364450   -1.768495
     89          1           0      -13.035849   -1.585430   -3.782909
     90          1           0      -12.264919    0.025954   -3.810937
     91          1           0      -11.248449   -1.561318   -3.551449
     92          1           0       -8.999634   -4.640032   -1.911320
     93          1           0       -7.850558   -5.760974   -1.124758
     94          1           0       -9.215557   -4.848711   -0.083669
     95          1           0       -3.134545   -3.317836   -0.033611
     96          1           0       -1.851052   -4.527955    3.705792
     97          1           0       -2.941853   -5.862893    3.617813
     98          1           0       -1.558711   -6.187961    2.768220
     99          1           0        2.723092   -1.352057   -1.754333
    100          1           0        2.551400    0.326474   -1.994161
    101          1           0        4.406659   -0.891150    0.374305
    102          1           0        3.952975    1.637715   -2.551447
    103          1           0        5.782157    2.019298   -2.262429
    104          1           0        5.545728    0.512169   -3.263260
    105          1           0        6.514416    1.697071   -0.261022
    106          1           0        6.406623    0.014896    0.800002
    107          1           0        7.514822   -1.072979   -1.170111
    108          1           0        7.990016    0.471978   -1.931638
    109          1           0        9.254178    0.665363    0.585848
    110          1           0        8.817531   -0.922830    0.609667
    111          1           0       10.261066    0.129202   -1.788628
    112          1           0        9.318923   -2.088725   -2.108277
    113          1           0       10.923204   -2.594502   -1.935117
    114          1           0        9.862950   -2.845706   -0.414281
    115          1           0       11.361103    0.590088    0.325806
    116          1           0       11.665201   -1.039985    0.817699
    117          1           0       13.024881   -1.743142   -0.729785
    118          1           0       12.956221   -0.122503   -1.671690
    119          1           0       13.861295    1.013285    0.488858
    120          1           0       14.113959   -0.473199    1.079416
    121          1           0       15.219210    0.545498   -1.543492
    122          1           0       15.791912   -2.164033   -0.173415
    123          1           0       15.183009   -1.807880   -1.894282
    124          1           0       16.860116   -1.807123   -1.466583
    125          1           0       16.285343    1.475684    0.698984
    126          1           0       16.357406   -0.146935    1.212992
    127          1           0       18.428071   -0.393182   -0.573321
    128          1           0       17.663667    1.031241   -1.178298
    129          1           0       18.587867    2.158732    1.017632
    130          1           0       18.780353    0.539204    1.581148
    131          1           0       20.663655    0.342070    0.343716
    132          1           0       20.245677    3.014477   -1.019537
    133          1           0       21.620612    2.144876   -1.280059
    134          1           0       20.208362    1.533310   -1.841335
    135          1           0       20.850512    1.627675    2.397200
    136          1           0       22.215303    2.073210    1.256154
    137          1           0       20.861256    3.144200    1.670810
 ---------------------------------------------------------------------

 SCF Done:  E(RCAM-B3LYP) =  -2932.65996082     A.U. after   15 cycles

 Excitation energies and oscillator strengths:

 Excited State   1:      Singlet-A      2.0649 eV  600.43 nm  f=0.2376  <S**2>=0.000
     240 -> 243       -0.26790
     241 -> 242        0.64920
 This state for optimization and/or second-order correction.
 Total Energy, E(TD-HF/TD-KS) =  -2932.58407585
 Copying the excited state density for this state as the 1-particle RhoCI density.

 The electronic state is 1-A.
 Alpha  occ. eigenvalues --  -46.84976 -19.27250 -19.26748 -19.21592 -19.21042
 Alpha  occ. eigenvalues --  -19.20399 -14.41212 -14.40135 -14.38799 -14.38756
 Alpha  occ. eigenvalues --  -10.39820 -10.39111 -10.35401 -10.32010 -10.31802
 Alpha  occ. eigenvalues --  -10.30798 -10.30036 -10.29805 -10.29627 -10.29482
 Alpha  occ. eigenvalues --  -10.29314 -10.29192 -10.29100 -10.28742 -10.28495
 Alpha  occ. eigenvalues --  -10.28424 -10.28230 -10.28024 -10.27992 -10.27851
 Alpha  occ. eigenvalues --  -10.27821 -10.27572 -10.27437 -10.27313 -10.27097
 Alpha  occ. eigenvalues --  -10.26977 -10.26949 -10.26925 -10.26810 -10.26793
 Alpha  occ. eigenvalues --  -10.26788 -10.26654 -10.26573 -10.26547 -10.26512
 Alpha  occ. eigenvalues --  -10.26489 -10.26389 -10.26274 -10.26010 -10.25587
 Alpha  occ. eigenvalues --  -10.25360 -10.25341 -10.25176 -10.25139 -10.25117
 Alpha  occ. eigenvalues --  -10.25096 -10.25037 -10.24759 -10.24685 -10.24517
 Alpha  occ. eigenvalues --  -10.24383 -10.24243 -10.23980 -10.23541 -10.22675
 Alpha  occ. eigenvalues --   -3.13993  -1.88688  -1.88224  -1.88176  -1.19550
 Alpha  occ. eigenvalues --   -1.17070  -1.11657  -1.10603  -1.07959  -1.06246
 Alpha  occ. eigenvalues --   -1.04960  -1.04793  -1.03371  -0.91850  -0.91221
 Alpha  occ. eigenvalues --   -0.90499  -0.89666  -0.89465  -0.89216  -0.88507
 Alpha  occ. eigenvalues --   -0.88307  -0.88258  -0.87838  -0.87412  -0.85214
 Alpha  occ. eigenvalues --   -0.84710  -0.83888  -0.83499  -0.82773  -0.82682
 Alpha  occ. eigenvalues --   -0.82076  -0.81037  -0.80305  -0.79564  -0.78119
 Alpha  occ. eigenvalues --   -0.77476  -0.76809  -0.76474  -0.76453  -0.75387
 Alpha  occ. eigenvalues --   -0.75215  -0.75043  -0.74891  -0.73290  -0.72472
 Alpha  occ. eigenvalues --   -0.71844  -0.70622  -0.69330  -0.68764  -0.68529
 Alpha  occ. eigenvalues --   -0.68213  -0.66984  -0.65720  -0.65115  -0.64895
 Alpha  occ. eigenvalues --   -0.64327  -0.63623  -0.63486  -0.63047  -0.62766
 Alpha  occ. eigenvalues --   -0.62023  -0.60946  -0.60474  -0.60222  -0.58995
 Alpha  occ. eigenvalues --   -0.58264  -0.58094  -0.57345  -0.56675  -0.56200
 Alpha  occ. eigenvalues --   -0.55589  -0.55304  -0.55162  -0.55003  -0.54817
 Alpha  occ. eigenvalues --   -0.54625  -0.54480  -0.54102  -0.53508  -0.53235
 Alpha  occ. eigenvalues --   -0.52932  -0.52623  -0.52541  -0.52266  -0.51976
 Alpha  occ. eigenvalues --   -0.51586  -0.51222  -0.51163  -0.50822  -0.50562
 Alpha  occ. eigenvalues --   -0.50501  -0.50200  -0.49803  -0.49567  -0.49337
 Alpha  occ. eigenvalues --   -0.49202  -0.48952  -0.48873  -0.48670  -0.48469
 Alpha  occ. eigenvalues --   -0.48302  -0.48281  -0.47720  -0.47518  -0.47257
 Alpha  occ. eigenvalues --   -0.46827  -0.46730  -0.46493  -0.46367  -0.46227
 Alpha  occ. eigenvalues --   -0.45860  -0.45715  -0.45374  -0.45154  -0.45109
 Alpha  occ. eigenvalues --   -0.44850  -0.44725  -0.44505  -0.44322  -0.44283
 Alpha  occ. eigenvalues --   -0.44210  -0.43971  -0.43929  -0.43428  -0.43350
 Alpha  occ. eigenvalues --   -0.43148  -0.43064  -0.42485  -0.42292  -0.42044
 Alpha  occ. eigenvalues --   -0.42001  -0.41723  -0.41609  -0.41498  -0.41043
 Alpha  occ. eigenvalues --   -0.40978  -0.40793  -0.40762  -0.40246  -0.40189
 Alpha  occ. eigenvalues --   -0.39991  -0.39917  -0.39276  -0.38909  -0.38565
 Alpha  occ. eigenvalues --   -0.38542  -0.38312  -0.38101  -0.37754  -0.37550
 Alpha  occ. eigenvalues --   -0.37420  -0.37082  -0.37029  -0.36933  -0.36428
 Alpha  occ. eigenvalues --   -0.36273  -0.36192  -0.36100  -0.35985  -0.35750
 Alpha  occ. eigenvalues --   -0.35500  -0.35178  -0.34532  -0.34063  -0.33446
 Alpha  occ. eigenvalues --   -0.33392  -0.33138  -0.32030  -0.31122  -0.30258
 Alpha  occ. eigenvalues --   -0.30134  -0.29804  -0.27776  -0.27066  -0.22739
 Alpha  occ. eigenvalues --   -0.21024
 Alpha virt. eigenvalues --   -0.06141  -0.02977   0.01438   0.03063   0.04288
 Alpha virt. eigenvalues --    0.05219   0.05473   0.06689   0.06816   0.07819
 Alpha virt. eigenvalues --    0.08591   0.10120   0.10815   0.11322   0.11360

 Mulliken charges:
               1
     1  Mg   0.846032
     2  C    0.037242
     3  C   -0.118142
     4  C   -0.186724
     5  C   -0.182711
     6  N   -0.620315
     7  C    0.288490
     8  C   -0.139255
     9  C   -0.159013
    10  C    0.325672
    11  C   -0.317651
    12  C   -0.158761
    13  C   -0.261599
    14  C    0.613152
    15  O   -0.430413
    16  O   -0.472334
    17  N   -0.696790
    18  C    0.339520
    19  C    0.015528
    20  C    0.000537
    21  C    0.269202
    22  C   -0.373517
    23  C   -0.034605
    24  C   -0.252369
    25  N   -0.686167
    26  C    0.271219
    27  C   -0.002306
    28  C    0.002364
    29  C    0.341691
    30  C   -0.358499
    31  C   -0.227275
    32  C   -0.283465
    33  N   -0.749573
    34  C    0.249564
    35  C   -0.061935
    36  C    0.060424
    37  C    0.314528
    38  C   -0.340104
    39  C    0.375657
    40  O   -0.464767
    41  C   -0.312495
    42  C    0.630206
    43  O   -0.491858
    44  O   -0.452277
    45  C   -0.087457
    46  C    0.009983
    47  C   -0.164024
    48  C    0.153245
    49  C   -0.345496
    50  C   -0.229209
    51  C   -0.151830
    52  C   -0.183308
    53  C   -0.052382
    54  C   -0.313217
    55  C   -0.165546
    56  C   -0.178655
    57  C   -0.182711
    58  C   -0.068171
    59  C   -0.301461
    60  C   -0.166837
    61  C   -0.167923
    62  C   -0.168475
    63  C   -0.061413
    64  C   -0.318547
    65  C   -0.310143
    66  H    0.058955
    67  H    0.086244
    68  H    0.083025
    69  H    0.121831
    70  H    0.103057
    71  H    0.099429
    72  H    0.106564
    73  H    0.142835
    74  H    0.096121
    75  H    0.137867
    76  H    0.085005
    77  H    0.137065
    78  H    0.128419
    79  H    0.122329
    80  H    0.029782
    81  H    0.098578
    82  H    0.086367
    83  H    0.113079
    84  H    0.133977
    85  H    0.116599
    86  H    0.116315
    87  H    0.087104
    88  H    0.103945
    89  H    0.094754
    90  H    0.095759
    91  H    0.112671
    92  H    0.137097
    93  H    0.149852
    94  H    0.122743
    95  H    0.146422
    96  H    0.122530
    97  H    0.151265
    98  H    0.134001
    99  H    0.139381
   100  H    0.096862
   101  H    0.092052
   102  H    0.105713
   103  H    0.116313
   104  H    0.099340
   105  H    0.091012
   106  H    0.081911
   107  H    0.121207
   108  H    0.079878
   109  H    0.062402
   110  H    0.089091
   111  H    0.081193
   112  H    0.106147
   113  H    0.089304
   114  H    0.110877
   115  H    0.097984
   116  H    0.089733
   117  H    0.088935
   118  H    0.096496
   119  H    0.074449
   120  H    0.076113
   121  H    0.065923
   122  H    0.113908
   123  H    0.104908
   124  H    0.082137
   125  H    0.083985
   126  H    0.096924
   127  H    0.079500
   128  H    0.081069
   129  H    0.074065
   130  H    0.092879
   131  H    0.092985
   132  H    0.109467
   133  H    0.094260
   134  H    0.109369
   135  H    0.110057
   136  H    0.093843
   137  H    0.074210
 Sum of Mulliken charges =   0.00000

 Dipole moment (field-independent basis, Debye):
    X=              0.8067    Y=              1.9191    Z=              1.6484  Tot=              2.6554
 Quadrupole moment (field-independent basis, Debye-Ang):
   XX=           -354.6210   YY=           -388.9775   ZZ=           -396.9440
   XY=            -19.3207   XZ=              2.7328   YZ=             -3.0539

 Normal termination of Gaussian 09 at Sun Jun 30 00:43:17 2019.
