 Gaussian 09, Revision D.01,
 Gaussian 09:  ES64L-G09RevD.01 24-Apr-2013

 -------------------------------------
 # td=(NStates=1) CAM-B3LYP/6-31G(d,p)
 -------------------------------------

 --
 TD
 --
 Symbolic Z-matrix:
 Charge =  0 Multiplicity = 1

                         Standard orientation:
 ---------------------------------------------------------------------
 Center     Atomic      Atomic             Coordinates (Angstroms)
 Number     Number       Type             X           Y           Z
 ---------------------------------------------------------------------
      1         12           0       -7.247437    0.660025    0.103994
      2          6           0       -4.899598   -1.942571    0.449184
      3          6           0       -4.793059    2.773499    1.105916
      4          6           0       -9.474349    3.036329   -0.251324
      5          6           0       -9.607204   -1.636213   -0.904011
      6          7           0       -5.197719    0.408391    0.679766
      7          6           0       -4.368891   -0.733591    0.746808
      8          6           0       -2.931884   -0.382098    1.172684
      9          6           0       -3.058980    1.027023    1.602884
     10          6           0       -4.442448    1.426899    1.160528
     11          6           0       -2.862904    1.318713    3.165951
     12          6           0       -1.879803   -0.608816    0.045305
     13          6           0       -0.426152   -0.507924    0.506418
     14          6           0        0.542101   -0.829271   -0.566354
     15          8           0        0.210449   -1.101347   -1.784058
     16          8           0        1.809966   -0.693754   -0.182423
     17          7           0       -7.170557    2.645120    0.304386
     18          6           0       -6.081768    3.341333    0.737869
     19          6           0       -6.417507    4.702627    0.837519
     20          6           0       -7.758934    4.814146    0.594516
     21          6           0       -8.194896    3.500365    0.228584
     22          6           0       -5.494109    5.848670    1.216887
     23          6           0       -8.634618    6.083696    0.400433
     24          6           0       -8.224723    7.330081    0.048474
     25          7           0       -9.226578    0.685203   -0.466719
     26          6           0       -9.868194    1.818988   -0.490508
     27          6           0      -11.231306    1.518656   -1.072573
     28          6           0      -11.381640    0.158289   -1.184190
     29          6           0       -9.979705   -0.393667   -0.846328
     30          6           0      -12.265092    2.475795   -1.276653
     31          6           0      -12.598619   -0.601952   -1.678243
     32          6           0      -12.477263   -1.127657   -3.112047
     33          7           0       -7.296890   -1.342751   -0.265485
     34          6           0       -8.274359   -2.155442   -0.629177
     35          6           0       -7.899683   -3.541020   -0.482275
     36          6           0       -6.508293   -3.466338   -0.135112
     37          6           0       -6.188297   -2.169503    0.011574
     38          6           0       -8.659589   -4.783612   -0.788808
     39          6           0       -5.355609   -4.267342    0.237469
     40          8           0       -5.295456   -5.571145    0.372711
     41          6           0       -4.165177   -3.203528    0.557755
     42          6           0       -3.573216   -3.627370    1.858696
     43          8           0       -3.790014   -3.054081    2.945046
     44          8           0       -2.701313   -4.654666    1.670157
     45          6           0       -2.134261   -5.192668    2.901098
     46          6           0        2.848811   -0.867937   -1.252638
     47          6           0        4.145640   -0.562603   -0.601806
     48          6           0        5.178150    0.208783   -1.093957
     49          6           0        5.231183    1.005467   -2.490661
     50          6           0        6.441736    0.255463   -0.358130
     51          6           0        7.705322   -0.211709   -1.063655
     52          6           0        8.917825   -0.250373   -0.111808
     53          6           0       10.289931   -0.562728   -0.712430
     54          6           0       10.240670   -2.019621   -1.335758
     55          6           0       11.558162   -0.348702    0.065031
     56          6           0       12.932080   -0.495266   -0.684972
     57          6           0       14.045963   -0.170863    0.305278
     58          6           0       15.323016   -0.117062   -0.394973
     59          6           0       15.798084   -1.567254   -0.871349
     60          6           0       16.494260    0.440335    0.472624
     61          6           0       17.789601    0.700518   -0.262906
     62          6           0       18.835158    1.191662    0.828629
     63          6           0       20.290125    1.505651    0.249772
     64          6           0       20.395570    2.435269   -1.010992
     65          6           0       21.215322    1.884298    1.426066
     66          1           0       -4.017086    3.548318    1.524559
     67          1           0      -10.111900    3.828754   -0.099547
     68          1           0      -10.298675   -2.530479   -1.267406
     69          1           0       -2.687433   -0.875227    1.995352
     70          1           0       -2.284613    1.584784    0.988600
     71          1           0       -1.906281    1.103294    3.594087
     72          1           0       -3.189181    2.276411    3.479869
     73          1           0       -3.622704    0.541366    3.691206
     74          1           0       -2.175405   -1.558787   -0.486056
     75          1           0       -2.141372   -0.044852   -0.768369
     76          1           0       -0.213774    0.618036    0.931951
     77          1           0       -0.185728   -1.350080    1.315199
     78          1           0       -5.088638    6.133259    0.333895
     79          1           0       -6.123588    6.705467    1.757650
     80          1           0       -4.509534    5.499561    1.709984
     81          1           0       -9.794023    5.922167    0.403377
     82          1           0       -8.881222    8.093567    0.055377
     83          1           0       -7.112534    7.587525   -0.256977
     84          1           0      -12.196173    3.046865   -2.208159
     85          1           0      -13.127024    1.723555   -1.320297
     86          1           0      -12.431452    3.177862   -0.344895
     87          1           0      -12.768705   -1.488494   -1.105767
     88          1           0      -13.480044   -0.043271   -1.555983
     89          1           0      -13.251780   -2.102752   -3.288791
     90          1           0      -12.724973   -0.238965   -3.929282
     91          1           0      -11.542906   -1.661871   -3.096456
     92          1           0       -8.864323   -4.699421   -1.935075
     93          1           0       -8.039492   -5.603813   -0.500377
     94          1           0       -9.591082   -4.975055   -0.234017
     95          1           0       -3.491233   -3.538354   -0.297275
     96          1           0       -1.395157   -4.333553    3.285905
     97          1           0       -2.964770   -5.492405    3.522750
     98          1           0       -1.587867   -6.072695    2.710303
     99          1           0        2.819505   -1.824519   -1.607536
    100          1           0        2.553829   -0.139306   -1.821382
    101          1           0        4.363584   -0.857928    0.367462
    102          1           0        4.205146    1.066325   -2.940643
    103          1           0        5.691483    1.840404   -2.036790
    104          1           0        5.847455    0.369262   -3.150575
    105          1           0        6.315614    1.333243   -0.008267
    106          1           0        6.363672   -0.332025    0.639977
    107          1           0        7.701236   -1.147586   -1.372431
    108          1           0        8.148924    0.398004   -2.093315
    109          1           0        9.057081    0.760070    0.180775
    110          1           0        8.538669   -0.953435    0.652566
    111          1           0       10.372042    0.116158   -1.489765
    112          1           0        9.417028   -2.029995   -2.033736
    113          1           0       11.128084   -2.062686   -2.033618
    114          1           0       10.260090   -2.651930   -0.453843
    115          1           0       11.448584    0.785495    0.389430
    116          1           0       11.784393   -1.159710    0.904370
    117          1           0       12.818848   -1.442127   -1.175860
    118          1           0       12.702831    0.098530   -1.601947
    119          1           0       13.809790    0.964403    0.729817
    120          1           0       14.169032   -0.829137    1.041045
    121          1           0       15.230956    0.612389   -1.183202
    122          1           0       15.857541   -2.313014   -0.039019
    123          1           0       15.103878   -1.932861   -1.521883
    124          1           0       16.517587   -1.595224   -1.490561
    125          1           0       16.434395    1.602945    0.822215
    126          1           0       16.462068   -0.181719    1.458584
    127          1           0       18.032136   -0.341872   -0.706641
    128          1           0       17.631169    1.343649   -0.984049
    129          1           0       18.667798    2.248312    1.184241
    130          1           0       18.945982    0.380719    1.742457
    131          1           0       20.639898    0.385199   -0.289284
    132          1           0       19.968893    3.322497   -0.795021
    133          1           0       21.464158    2.440773   -1.276489
    134          1           0       19.850087    1.873571   -2.014459
    135          1           0       21.072489    1.328695    2.185584
    136          1           0       22.219818    1.903615    0.916994
    137          1           0       20.887805    3.000868    1.494540
 ---------------------------------------------------------------------

 SCF Done:  E(RCAM-B3LYP) =  -2932.57248974     A.U. after   17 cycles

 Excitation energies and oscillator strengths:

 Excited State   1:      Singlet-A      1.8817 eV  658.90 nm  f=0.3558  <S**2>=0.000
     240 -> 243        0.17502
     241 -> 242        0.68470
 This state for optimization and/or second-order correction.
 Total Energy, E(TD-HF/TD-KS) =  -2932.50333873
 Copying the excited state density for this state as the 1-particle RhoCI density.

 The electronic state is 1-A.
 Alpha  occ. eigenvalues --  -46.84233 -19.26269 -19.26154 -19.20318 -19.19643
 Alpha  occ. eigenvalues --  -19.19449 -14.42558 -14.39465 -14.39270 -14.38672
 Alpha  occ. eigenvalues --  -10.39304 -10.39213 -10.35262 -10.31532 -10.30963
 Alpha  occ. eigenvalues --  -10.30655 -10.30228 -10.30125 -10.29973 -10.29931
 Alpha  occ. eigenvalues --  -10.29418 -10.29124 -10.28844 -10.28680 -10.28367
 Alpha  occ. eigenvalues --  -10.28040 -10.27798 -10.27786 -10.27729 -10.27711
 Alpha  occ. eigenvalues --  -10.27504 -10.27467 -10.27379 -10.27249 -10.27228
 Alpha  occ. eigenvalues --  -10.27139 -10.27084 -10.26977 -10.26882 -10.26879
 Alpha  occ. eigenvalues --  -10.26847 -10.26823 -10.26675 -10.26474 -10.26442
 Alpha  occ. eigenvalues --  -10.26223 -10.26139 -10.26098 -10.25936 -10.25930
 Alpha  occ. eigenvalues --  -10.25908 -10.25715 -10.25448 -10.25413 -10.25377
 Alpha  occ. eigenvalues --  -10.25340 -10.25318 -10.25280 -10.25263 -10.25045
 Alpha  occ. eigenvalues --  -10.24894 -10.24698 -10.24476 -10.24259 -10.22856
 Alpha  occ. eigenvalues --   -3.13346  -1.88049  -1.87590  -1.87521  -1.16871
 Alpha  occ. eigenvalues --   -1.16596  -1.07384  -1.05622  -1.05347  -1.05098
 Alpha  occ. eigenvalues --   -1.04199  -1.03904  -1.02770  -0.93795  -0.92058
 Alpha  occ. eigenvalues --   -0.91097  -0.90527  -0.89776  -0.89648  -0.89204
 Alpha  occ. eigenvalues --   -0.88510  -0.87884  -0.87645  -0.86790  -0.85851
 Alpha  occ. eigenvalues --   -0.85198  -0.84499  -0.84025  -0.83597  -0.83327
 Alpha  occ. eigenvalues --   -0.82312  -0.81800  -0.80924  -0.80158  -0.78402
 Alpha  occ. eigenvalues --   -0.78073  -0.77074  -0.76943  -0.76378  -0.76248
 Alpha  occ. eigenvalues --   -0.75928  -0.75061  -0.74392  -0.73534  -0.72736
 Alpha  occ. eigenvalues --   -0.72127  -0.70957  -0.70102  -0.69253  -0.68152
 Alpha  occ. eigenvalues --   -0.67109  -0.67026  -0.65467  -0.65444  -0.65395
 Alpha  occ. eigenvalues --   -0.64299  -0.63416  -0.63231  -0.61930  -0.61859
 Alpha  occ. eigenvalues --   -0.60545  -0.60514  -0.59770  -0.59512  -0.59229
 Alpha  occ. eigenvalues --   -0.58536  -0.58054  -0.57627  -0.57373  -0.56778
 Alpha  occ. eigenvalues --   -0.55900  -0.55668  -0.55573  -0.55078  -0.54873
 Alpha  occ. eigenvalues --   -0.54293  -0.54151  -0.53932  -0.53566  -0.53408
 Alpha  occ. eigenvalues --   -0.52754  -0.52614  -0.52444  -0.52364  -0.52163
 Alpha  occ. eigenvalues --   -0.51906  -0.51840  -0.51267  -0.51156  -0.51134
 Alpha  occ. eigenvalues --   -0.50865  -0.50285  -0.50174  -0.50039  -0.49767
 Alpha  occ. eigenvalues --   -0.49362  -0.49266  -0.49186  -0.48655  -0.48364
 Alpha  occ. eigenvalues --   -0.48181  -0.47921  -0.47627  -0.47440  -0.47294
 Alpha  occ. eigenvalues --   -0.46929  -0.46828  -0.46405  -0.46218  -0.46152
 Alpha  occ. eigenvalues --   -0.45969  -0.45678  -0.45409  -0.45304  -0.45203
 Alpha  occ. eigenvalues --   -0.45011  -0.44840  -0.44616  -0.44509  -0.44313
 Alpha  occ. eigenvalues --   -0.44188  -0.44080  -0.43604  -0.43315  -0.43278
 Alpha  occ. eigenvalues --   -0.42995  -0.42898  -0.42749  -0.42494  -0.42250
 Alpha  occ. eigenvalues --   -0.42096  -0.42005  -0.41473  -0.41440  -0.41356
 Alpha  occ. eigenvalues --   -0.40874  -0.40805  -0.40581  -0.40461  -0.40091
 Alpha  occ. eigenvalues --   -0.40027  -0.39932  -0.39592  -0.39509  -0.39270
 Alpha  occ. eigenvalues --   -0.38877  -0.38396  -0.38240  -0.38167  -0.38076
 Alpha  occ. eigenvalues --   -0.37665  -0.37539  -0.37410  -0.36944  -0.36802
 Alpha  occ. eigenvalues --   -0.36499  -0.35978  -0.35505  -0.35404  -0.35220
 Alpha  occ. eigenvalues --   -0.34828  -0.34278  -0.33499  -0.33267  -0.32738
 Alpha  occ. eigenvalues --   -0.32605  -0.32411  -0.32190  -0.31726  -0.29342
 Alpha  occ. eigenvalues --   -0.29116  -0.28791  -0.28416  -0.27859  -0.23260
 Alpha  occ. eigenvalues --   -0.21247
 Alpha virt. eigenvalues --   -0.07882  -0.01207   0.01168   0.03918   0.05081
 Alpha virt. eigenvalues --    0.05588   0.06138   0.06501   0.06695   0.06920
 Alpha virt. eigenvalues --    0.08226   0.10520   0.10744   0.11161   0.11480

 Mulliken charges:
               1
     1  Mg   0.818046
     2  C    0.077331
     3  C   -0.203326
     4  C   -0.151417
     5  C   -0.200925
     6  N   -0.622245
     7  C    0.247862
     8  C   -0.101065
     9  C   -0.155958
    10  C    0.364642
    11  C   -0.322908
    12  C   -0.178412
    13  C   -0.252743
    14  C    0.617157
    15  O   -0.528469
    16  O   -0.497102
    17  N   -0.722094
    18  C    0.317235
    19  C    0.005797
    20  C   -0.000485
    21  C    0.271052
    22  C   -0.368263
    23  C   -0.084502
    24  C   -0.236522
    25  N   -0.725046
    26  C    0.395193
    27  C    0.008880
    28  C    0.030023
    29  C    0.340032
    30  C   -0.378964
    31  C   -0.243345
    32  C   -0.283617
    33  N   -0.721283
    34  C    0.277974
    35  C   -0.014500
    36  C    0.059726
    37  C    0.286617
    38  C   -0.380659
    39  C    0.314849
    40  O   -0.515553
    41  C   -0.342843
    42  C    0.659516
    43  O   -0.505363
    44  O   -0.464820
    45  C   -0.071544
    46  C    0.064529
    47  C   -0.157876
    48  C    0.059721
    49  C   -0.335235
    50  C   -0.223558
    51  C   -0.166072
    52  C   -0.167221
    53  C   -0.083410
    54  C   -0.317575
    55  C   -0.156409
    56  C   -0.196285
    57  C   -0.132749
    58  C   -0.074003
    59  C   -0.321069
    60  C   -0.154905
    61  C   -0.161675
    62  C   -0.159988
    63  C   -0.066955
    64  C   -0.297311
    65  C   -0.276681
    66  H    0.084077
    67  H    0.069694
    68  H    0.094587
    69  H    0.125657
    70  H    0.103035
    71  H    0.118885
    72  H    0.120461
    73  H    0.108211
    74  H    0.117042
    75  H    0.128039
    76  H    0.126544
    77  H    0.131799
    78  H    0.145418
    79  H    0.125280
    80  H    0.099426
    81  H    0.093467
    82  H    0.110133
    83  H    0.102256
    84  H    0.127800
    85  H    0.099083
    86  H    0.104092
    87  H    0.117355
    88  H    0.113863
    89  H    0.068549
    90  H    0.097459
    91  H    0.123541
    92  H    0.113418
    93  H    0.154326
    94  H    0.117282
    95  H    0.178674
    96  H    0.109961
    97  H    0.146044
    98  H    0.132992
    99  H    0.148067
   100  H    0.130111
   101  H    0.087642
   102  H    0.112897
   103  H    0.123814
   104  H    0.134532
   105  H    0.107272
   106  H    0.095532
   107  H    0.122653
   108  H    0.053920
   109  H    0.094657
   110  H    0.086834
   111  H    0.086128
   112  H    0.103207
   113  H    0.090937
   114  H    0.113619
   115  H    0.067939
   116  H    0.068081
   117  H    0.107403
   118  H    0.083746
   119  H    0.077476
   120  H    0.101641
   121  H    0.082909
   122  H    0.098267
   123  H    0.104751
   124  H    0.113383
   125  H    0.051022
   126  H    0.069029
   127  H    0.082845
   128  H    0.109629
   129  H    0.084391
   130  H    0.079054
   131  H    0.023015
   132  H    0.111192
   133  H    0.111851
   134  H    0.075896
   135  H    0.116180
   136  H    0.102626
   137  H    0.084167
 Sum of Mulliken charges =   0.00000

 Dipole moment (field-independent basis, Debye):
    X=              3.1524    Y=              5.6613    Z=              0.1970  Tot=              6.4828
 Quadrupole moment (field-independent basis, Debye-Ang):
   XX=           -345.8697   YY=           -394.3450   ZZ=           -401.3918
   XY=            -31.4255   XZ=              0.1725   YZ=             -2.5170

 Normal termination of Gaussian 09 at Wed Jun 26 23:20:45 2019.
