 Gaussian 09, Revision D.01,
 Gaussian 09:  ES64L-G09RevD.01 24-Apr-2013

 -------------------------------------
 # td=(NStates=1) CAM-B3LYP/6-31G(d,p)
 -------------------------------------

 --
 TD
 --
 Symbolic Z-matrix:
 Charge =  0 Multiplicity = 1

                         Standard orientation:
 ---------------------------------------------------------------------
 Center     Atomic      Atomic             Coordinates (Angstroms)
 Number     Number       Type             X           Y           Z
 ---------------------------------------------------------------------
      1         12           0       -7.175056    0.662734    0.198987
      2          6           0       -4.948025   -1.957625    0.545110
      3          6           0       -4.873754    2.774570    1.261097
      4          6           0       -9.439094    3.096341   -0.304264
      5          6           0       -9.540571   -1.808769   -0.967815
      6          7           0       -5.048324    0.429313    0.693798
      7          6           0       -4.453456   -0.720421    0.814583
      8          6           0       -2.978880   -0.463670    1.196089
      9          6           0       -3.035694    1.081468    1.541546
     10          6           0       -4.360973    1.542863    1.093052
     11          6           0       -2.776742    1.341941    3.082280
     12          6           0       -1.915295   -0.741111    0.010824
     13          6           0       -0.458178   -0.543695    0.500934
     14          6           0        0.540676   -0.781788   -0.637831
     15          8           0        0.340938   -1.248399   -1.764837
     16          8           0        1.798449   -0.517782   -0.178357
     17          7           0       -7.087614    2.643183    0.419159
     18          6           0       -6.020118    3.346968    0.762755
     19          6           0       -6.441227    4.862637    0.716490
     20          6           0       -7.687036    4.877907    0.441963
     21          6           0       -8.148467    3.474129    0.135317
     22          6           0       -5.403917    5.890579    1.368975
     23          6           0       -8.581866    6.110847    0.248749
     24          6           0       -8.042813    7.422473   -0.030356
     25          7           0       -9.091016    0.717323   -0.616749
     26          6           0       -9.887153    1.767512   -0.639717
     27          6           0      -11.230460    1.462921   -0.978805
     28          6           0      -11.233803    0.140093   -1.189610
     29          6           0       -9.909706   -0.356129   -0.864448
     30          6           0      -12.384491    2.449548   -1.130712
     31          6           0      -12.443245   -0.587776   -1.822104
     32          6           0      -12.433540   -0.815387   -3.317759
     33          7           0       -7.279526   -1.429794   -0.185755
     34          6           0       -8.305908   -2.343953   -0.531819
     35          6           0       -7.960873   -3.630355   -0.450202
     36          6           0       -6.638643   -3.591397   -0.053944
     37          6           0       -6.320576   -2.269408    0.258630
     38          6           0       -8.692271   -4.874864   -0.944360
     39          6           0       -5.522093   -4.383293    0.277544
     40          8           0       -5.265526   -5.608356    0.367146
     41          6           0       -4.244935   -3.295767    0.482165
     42          6           0       -3.470546   -3.654570    1.826250
     43          8           0       -3.713423   -3.143858    2.900911
     44          8           0       -2.653199   -4.623561    1.610195
     45          6           0       -2.111213   -5.171286    2.882843
     46          6           0        2.933752   -0.778589   -1.113939
     47          6           0        4.137878   -0.639667   -0.500570
     48          6           0        5.188222    0.150447   -0.945399
     49          6           0        5.143218    1.134910   -2.084425
     50          6           0        6.457557    0.264906   -0.138728
     51          6           0        7.640260   -0.174844   -0.898097
     52          6           0        8.933875   -0.100932   -0.145383
     53          6           0       10.130077   -0.603355   -0.862056
     54          6           0       10.166260   -2.139972   -1.317571
     55          6           0       11.462091   -0.429988    0.010930
     56          6           0       12.748111   -0.519760   -0.717430
     57          6           0       13.966514   -0.012405    0.181036
     58          6           0       15.314545   -0.115362   -0.539408
     59          6           0       15.797865   -1.566827   -0.969451
     60          6           0       16.404176    0.450187    0.329724
     61          6           0       17.777190    0.654119   -0.236017
     62          6           0       18.742735    1.357277    0.725260
     63          6           0       20.272475    1.371337    0.330334
     64          6           0       20.287889    2.092161   -1.048363
     65          6           0       21.155801    2.092521    1.290336
     66          1           0       -4.185834    3.460864    1.677052
     67          1           0      -10.190054    3.896801    0.043842
     68          1           0      -10.369568   -2.313776   -0.939358
     69          1           0       -2.745135   -1.125090    2.097668
     70          1           0       -2.175708    1.528531    1.176559
     71          1           0       -1.819631    0.955169    3.315323
     72          1           0       -2.837117    2.204672    3.368937
     73          1           0       -3.476289    0.797848    3.714868
     74          1           0       -2.146632   -1.732712   -0.227775
     75          1           0       -1.957360   -0.099032   -0.935726
     76          1           0       -0.226714    0.511272    0.785896
     77          1           0       -0.106722   -1.402514    1.158236
     78          1           0       -4.774831    6.478508    0.656840
     79          1           0       -6.320424    6.503827    1.787891
     80          1           0       -4.880063    5.363996    2.271835
     81          1           0       -9.815232    6.124457    0.546241
     82          1           0       -8.757784    8.264522   -0.165169
     83          1           0       -7.109119    7.635755   -0.315709
     84          1           0      -12.240142    3.007283   -1.904399
     85          1           0      -13.173741    2.018672   -1.295349
     86          1           0      -12.691611    3.267113   -0.415617
     87          1           0      -12.649713   -1.681017   -1.279814
     88          1           0      -13.338270    0.038797   -1.675482
     89          1           0      -13.285789   -1.297661   -3.684238
     90          1           0      -12.681335    0.183226   -3.853387
     91          1           0      -11.400759   -1.278799   -3.638431
     92          1           0       -8.889632   -4.984395   -1.961369
     93          1           0       -8.076887   -5.559221   -0.848852
     94          1           0       -9.686672   -4.859134   -0.425938
     95          1           0       -3.560665   -3.436147   -0.451057
     96          1           0       -1.425168   -4.395993    3.447731
     97          1           0       -2.814521   -5.267589    3.744096
     98          1           0       -1.701139   -6.173118    2.497556
     99          1           0        2.742192   -1.865249   -1.555025
    100          1           0        2.887106   -0.057167   -2.030411
    101          1           0        4.221164   -1.238360    0.250566
    102          1           0        3.999487    1.612223   -2.505153
    103          1           0        5.576525    2.067925   -1.699349
    104          1           0        5.725627    0.845156   -2.828228
    105          1           0        6.739215    1.252136    0.307825
    106          1           0        6.243126   -0.188530    0.737266
    107          1           0        7.529116   -1.200844   -1.152889
    108          1           0        7.611754    0.590745   -1.660583
    109          1           0        9.333344    0.933808    0.041391
    110          1           0        9.019663   -0.565654    1.005209
    111          1           0       10.313625   -0.057954   -1.751604
    112          1           0        9.154792   -2.315100   -1.912736
    113          1           0       11.025792   -2.196058   -1.844780
    114          1           0        9.967544   -2.827004   -0.446373
    115          1           0       11.407968    0.491371    0.725374
    116          1           0       11.443517   -1.335389    0.791214
    117          1           0       12.847517   -1.563397   -1.092967
    118          1           0       12.791517    0.200136   -1.653082
    119          1           0       13.787923    1.174893    0.549609
    120          1           0       14.128671   -0.615831    1.209434
    121          1           0       15.245941    0.397496   -1.583987
    122          1           0       15.728080   -2.093575    0.011555
    123          1           0       15.184424   -2.106138   -1.822677
    124          1           0       16.771445   -1.438589   -1.585628
    125          1           0       16.004985    1.512540    0.673429
    126          1           0       16.695422   -0.170144    1.193848
    127          1           0       18.248786   -0.321434   -0.355866
    128          1           0       18.054103    1.257939   -1.220222
    129          1           0       18.583642    2.441577    0.819803
    130          1           0       18.657776    0.848410    1.631280
    131          1           0       20.572580    0.339475    0.229601
    132          1           0       19.875391    3.037600   -0.774087
    133          1           0       21.386986    2.130639   -1.427514
    134          1           0       19.654837    1.788650   -1.942756
    135          1           0       21.266411    1.281366    2.213585
    136          1           0       22.111262    2.151810    0.809994
    137          1           0       20.725483    3.001867    1.725171
 ---------------------------------------------------------------------

 SCF Done:  E(RCAM-B3LYP) =  -2932.53313935     A.U. after   16 cycles

 Excitation energies and oscillator strengths:

 Excited State   1:      Singlet-A      2.1470 eV  577.49 nm  f=0.2041  <S**2>=0.000
     240 -> 242        0.22377
     240 -> 243       -0.25805
     241 -> 242        0.59441
     241 -> 243        0.13788
 This state for optimization and/or second-order correction.
 Total Energy, E(TD-HF/TD-KS) =  -2932.45423997
 Copying the excited state density for this state as the 1-particle RhoCI density.

 The electronic state is 1-A.
 Alpha  occ. eigenvalues --  -46.85548 -19.27026 -19.25259 -19.20114 -19.19559
 Alpha  occ. eigenvalues --  -19.19094 -14.40702 -14.40511 -14.39611 -14.38726
 Alpha  occ. eigenvalues --  -10.38598 -10.38053 -10.34335 -10.32681 -10.31479
 Alpha  occ. eigenvalues --  -10.31465 -10.31079 -10.30951 -10.30757 -10.29288
 Alpha  occ. eigenvalues --  -10.29246 -10.29084 -10.28902 -10.28541 -10.28338
 Alpha  occ. eigenvalues --  -10.28276 -10.28191 -10.28132 -10.28020 -10.27979
 Alpha  occ. eigenvalues --  -10.27861 -10.27850 -10.27821 -10.27667 -10.27618
 Alpha  occ. eigenvalues --  -10.27230 -10.26957 -10.26950 -10.26716 -10.26651
 Alpha  occ. eigenvalues --  -10.26637 -10.26574 -10.26399 -10.26355 -10.26314
 Alpha  occ. eigenvalues --  -10.26040 -10.25842 -10.25809 -10.25773 -10.25628
 Alpha  occ. eigenvalues --  -10.25588 -10.25503 -10.25345 -10.25266 -10.25111
 Alpha  occ. eigenvalues --  -10.25039 -10.25022 -10.24910 -10.24850 -10.24441
 Alpha  occ. eigenvalues --  -10.24206 -10.24004 -10.23955 -10.23262 -10.23247
 Alpha  occ. eigenvalues --   -3.14370  -1.89091  -1.88597  -1.88540  -1.19244
 Alpha  occ. eigenvalues --   -1.15808  -1.08343  -1.07550  -1.06898  -1.05364
 Alpha  occ. eigenvalues --   -1.04605  -1.04275  -1.03342  -0.92737  -0.91351
 Alpha  occ. eigenvalues --   -0.90630  -0.90006  -0.89648  -0.89032  -0.88774
 Alpha  occ. eigenvalues --   -0.88558  -0.88228  -0.87865  -0.87140  -0.86815
 Alpha  occ. eigenvalues --   -0.85085  -0.83949  -0.83493  -0.82957  -0.82014
 Alpha  occ. eigenvalues --   -0.81893  -0.81195  -0.80404  -0.80148  -0.79324
 Alpha  occ. eigenvalues --   -0.78830  -0.78012  -0.76665  -0.76514  -0.75308
 Alpha  occ. eigenvalues --   -0.75022  -0.74159  -0.73990  -0.73597  -0.73094
 Alpha  occ. eigenvalues --   -0.71939  -0.70652  -0.69121  -0.68383  -0.67952
 Alpha  occ. eigenvalues --   -0.67623  -0.66439  -0.65540  -0.64852  -0.64018
 Alpha  occ. eigenvalues --   -0.63615  -0.62503  -0.62464  -0.62417  -0.62146
 Alpha  occ. eigenvalues --   -0.61277  -0.60944  -0.60391  -0.59974  -0.59516
 Alpha  occ. eigenvalues --   -0.59018  -0.58177  -0.57763  -0.56533  -0.56405
 Alpha  occ. eigenvalues --   -0.56241  -0.55564  -0.55071  -0.54786  -0.54561
 Alpha  occ. eigenvalues --   -0.54277  -0.54043  -0.53826  -0.53529  -0.53275
 Alpha  occ. eigenvalues --   -0.52902  -0.52347  -0.52318  -0.52115  -0.51513
 Alpha  occ. eigenvalues --   -0.51424  -0.51151  -0.50972  -0.50701  -0.50375
 Alpha  occ. eigenvalues --   -0.50227  -0.50188  -0.50037  -0.49657  -0.49408
 Alpha  occ. eigenvalues --   -0.49318  -0.49202  -0.48916  -0.48585  -0.48222
 Alpha  occ. eigenvalues --   -0.48104  -0.47790  -0.47763  -0.47395  -0.47067
 Alpha  occ. eigenvalues --   -0.46981  -0.46851  -0.46683  -0.46189  -0.46033
 Alpha  occ. eigenvalues --   -0.46008  -0.45806  -0.45456  -0.45337  -0.45205
 Alpha  occ. eigenvalues --   -0.45026  -0.44827  -0.44763  -0.44267  -0.44044
 Alpha  occ. eigenvalues --   -0.43948  -0.43788  -0.43593  -0.43410  -0.43046
 Alpha  occ. eigenvalues --   -0.42920  -0.42611  -0.42411  -0.42234  -0.42096
 Alpha  occ. eigenvalues --   -0.41827  -0.41537  -0.41521  -0.41140  -0.40933
 Alpha  occ. eigenvalues --   -0.40788  -0.40611  -0.40406  -0.40323  -0.39963
 Alpha  occ. eigenvalues --   -0.39678  -0.39640  -0.39583  -0.39394  -0.39210
 Alpha  occ. eigenvalues --   -0.39123  -0.38335  -0.37868  -0.37646  -0.37606
 Alpha  occ. eigenvalues --   -0.37487  -0.37107  -0.36831  -0.36822  -0.36113
 Alpha  occ. eigenvalues --   -0.35898  -0.35734  -0.35664  -0.35651  -0.35255
 Alpha  occ. eigenvalues --   -0.35096  -0.34984  -0.34871  -0.33822  -0.33296
 Alpha  occ. eigenvalues --   -0.32774  -0.32589  -0.31944  -0.30791  -0.29701
 Alpha  occ. eigenvalues --   -0.29315  -0.29241  -0.28636  -0.28426  -0.22832
 Alpha  occ. eigenvalues --   -0.21579
 Alpha virt. eigenvalues --   -0.06339  -0.03267   0.01552   0.03246   0.03871
 Alpha virt. eigenvalues --    0.04961   0.06361   0.07083   0.07392   0.07801
 Alpha virt. eigenvalues --    0.09225   0.10741   0.11083   0.11622   0.11707

 Mulliken charges:
               1
     1  Mg   0.835205
     2  C    0.085378
     3  C   -0.200263
     4  C   -0.173747
     5  C   -0.116596
     6  N   -0.661512
     7  C    0.323797
     8  C   -0.180588
     9  C   -0.170378
    10  C    0.376065
    11  C   -0.310571
    12  C   -0.168665
    13  C   -0.252080
    14  C    0.586460
    15  O   -0.485788
    16  O   -0.499228
    17  N   -0.694290
    18  C    0.299592
    19  C   -0.029487
    20  C    0.047469
    21  C    0.279079
    22  C   -0.358861
    23  C   -0.103133
    24  C   -0.234269
    25  N   -0.664311
    26  C    0.283760
    27  C    0.029898
    28  C    0.018928
    29  C    0.209998
    30  C   -0.337871
    31  C   -0.234061
    32  C   -0.293263
    33  N   -0.651098
    34  C    0.240753
    35  C    0.019417
    36  C    0.021940
    37  C    0.239745
    38  C   -0.324654
    39  C    0.337155
    40  O   -0.499487
    41  C   -0.334982
    42  C    0.622582
    43  O   -0.500735
    44  O   -0.411186
    45  C   -0.107150
    46  C    0.016660
    47  C   -0.082610
    48  C    0.099483
    49  C   -0.363739
    50  C   -0.234361
    51  C   -0.158291
    52  C   -0.172282
    53  C   -0.062766
    54  C   -0.308831
    55  C   -0.171878
    56  C   -0.169789
    57  C   -0.153939
    58  C   -0.055642
    59  C   -0.309491
    60  C   -0.148372
    61  C   -0.181478
    62  C   -0.171398
    63  C   -0.071986
    64  C   -0.310917
    65  C   -0.287834
    66  H    0.073182
    67  H    0.097048
    68  H    0.085921
    69  H    0.132635
    70  H    0.104745
    71  H    0.109111
    72  H    0.109583
    73  H    0.116839
    74  H    0.123175
    75  H    0.114642
    76  H    0.136081
    77  H    0.143320
    78  H    0.131834
    79  H    0.123664
    80  H    0.122561
    81  H    0.093917
    82  H    0.107031
    83  H    0.117726
    84  H    0.136385
    85  H    0.105090
    86  H    0.102002
    87  H    0.072898
    88  H    0.104381
    89  H    0.118021
    90  H    0.088291
    91  H    0.105838
    92  H    0.129265
    93  H    0.142197
    94  H    0.115066
    95  H    0.145299
    96  H    0.119868
    97  H    0.152853
    98  H    0.133560
    99  H    0.118365
   100  H    0.101793
   101  H    0.082654
   102  H    0.086023
   103  H    0.121834
   104  H    0.144468
   105  H    0.097502
   106  H    0.105925
   107  H    0.110165
   108  H    0.103967
   109  H    0.089707
   110  H    0.064047
   111  H    0.090093
   112  H    0.077543
   113  H    0.116485
   114  H    0.101110
   115  H    0.073431
   116  H    0.072953
   117  H    0.107761
   118  H    0.079346
   119  H    0.070879
   120  H    0.071533
   121  H    0.075527
   122  H    0.102065
   123  H    0.083238
   124  H    0.109651
   125  H    0.074387
   126  H    0.093271
   127  H    0.096263
   128  H    0.071297
   129  H    0.080262
   130  H    0.082813
   131  H    0.087891
   132  H    0.104891
   133  H    0.079784
   134  H    0.102416
   135  H    0.072382
   136  H    0.113485
   137  H    0.109257
 Sum of Mulliken charges =   0.00000

 Dipole moment (field-independent basis, Debye):
    X=              1.3307    Y=              6.3286    Z=              0.9169  Tot=              6.5317
 Quadrupole moment (field-independent basis, Debye-Ang):
   XX=           -324.3174   YY=           -391.1680   ZZ=           -399.0136
   XY=            -33.7947   XZ=              6.3440   YZ=             -1.5221

 Normal termination of Gaussian 09 at Fri Jun 28 15:34:05 2019.
