 Gaussian 09, Revision D.01,
 Gaussian 09:  ES64L-G09RevD.01 24-Apr-2013

 -------------------------------------
 # td=(NStates=1) CAM-B3LYP/6-31G(d,p)
 -------------------------------------

 --
 TD
 --
 Symbolic Z-matrix:
 Charge =  0 Multiplicity = 1

                         Standard orientation:
 ---------------------------------------------------------------------
 Center     Atomic      Atomic             Coordinates (Angstroms)
 Number     Number       Type             X           Y           Z
 ---------------------------------------------------------------------
      1         12           0       -7.190197    0.541678    0.117630
      2          6           0       -4.861201   -1.988746    0.514862
      3          6           0       -4.834188    2.824964    1.171085
      4          6           0       -9.458920    3.023695   -0.317457
      5          6           0       -9.505487   -1.779884   -0.953270
      6          7           0       -5.126257    0.463342    0.701273
      7          6           0       -4.352240   -0.681224    0.784859
      8          6           0       -2.943784   -0.327082    1.167442
      9          6           0       -3.037409    1.139489    1.670959
     10          6           0       -4.375029    1.496319    1.171550
     11          6           0       -2.952648    1.238883    3.278503
     12          6           0       -1.818235   -0.713898    0.157226
     13          6           0       -0.493237   -0.388650    0.608128
     14          6           0        0.506195   -0.559046   -0.623028
     15          8           0        0.218689   -1.052872   -1.716181
     16          8           0        1.845683   -0.101502   -0.261238
     17          7           0       -7.084883    2.616925    0.380611
     18          6           0       -6.064009    3.365009    0.841295
     19          6           0       -6.521653    4.733774    0.886900
     20          6           0       -7.795868    4.832789    0.402189
     21          6           0       -8.234933    3.477128    0.209717
     22          6           0       -5.474444    5.802771    1.402889
     23          6           0       -8.723130    5.949216    0.362748
     24          6           0       -8.343918    7.151577   -0.035595
     25          7           0       -9.165950    0.594947   -0.511376
     26          6           0       -9.847715    1.710983   -0.553839
     27          6           0      -11.218880    1.466890   -1.096557
     28          6           0      -11.294275    0.078277   -1.275097
     29          6           0       -9.964963   -0.437986   -0.943613
     30          6           0      -12.344926    2.435693   -1.290758
     31          6           0      -12.376820   -0.815816   -1.820289
     32          6           0      -12.092686   -1.242052   -3.280925
     33          7           0       -7.211351   -1.417817   -0.102140
     34          6           0       -8.269391   -2.252946   -0.478081
     35          6           0       -7.826940   -3.610332   -0.536715
     36          6           0       -6.503882   -3.588373   -0.173757
     37          6           0       -6.200024   -2.228142    0.109083
     38          6           0       -8.694491   -4.839433   -0.829438
     39          6           0       -5.301867   -4.415513    0.099212
     40          8           0       -5.067658   -5.671032    0.111240
     41          6           0       -4.204022   -3.287169    0.454283
     42          6           0       -3.566272   -3.649907    1.786289
     43          8           0       -3.725249   -3.098500    2.852486
     44          8           0       -2.904811   -4.886933    1.733794
     45          6           0       -2.389655   -5.197806    2.960075
     46          6           0        2.860274   -0.527271   -1.215678
     47          6           0        4.155669   -0.287728   -0.483686
     48          6           0        5.106050    0.581262   -0.816886
     49          6           0        5.041868    1.477536   -2.147847
     50          6           0        6.461948    0.774037   -0.116969
     51          6           0        7.585105    0.077072   -0.908831
     52          6           0        8.862025    0.148817   -0.085688
     53          6           0       10.165055   -0.403581   -0.833715
     54          6           0       10.115942   -1.874352   -1.220899
     55          6           0       11.474900   -0.156971   -0.091318
     56          6           0       12.820920   -0.448700   -0.762086
     57          6           0       13.958265    0.027895    0.053677
     58          6           0       15.338983   -0.251846   -0.492304
     59          6           0       15.688431   -1.729852   -0.999897
     60          6           0       16.464436    0.231123    0.466252
     61          6           0       17.839543    0.405743   -0.207126
     62          6           0       18.900306    0.998351    0.744793
     63          6           0       20.357786    1.070122    0.300100
     64          6           0       20.484975    1.952481   -1.069497
     65          6           0       21.348790    1.700518    1.250521
     66          1           0       -4.051765    3.525997    1.561602
     67          1           0      -10.098508    3.839940   -0.658914
     68          1           0      -10.168879   -2.477536   -1.238713
     69          1           0       -2.686026   -0.814862    2.108912
     70          1           0       -2.144435    1.661768    1.357332
     71          1           0       -2.041814    0.759688    3.625908
     72          1           0       -3.031793    2.409472    3.540047
     73          1           0       -3.891594    0.643627    3.573554
     74          1           0       -1.963047   -1.716078   -0.186850
     75          1           0       -1.993608   -0.091758   -0.709775
     76          1           0       -0.206625    0.730009    0.915353
     77          1           0       -0.211449   -1.164522    1.351370
     78          1           0       -4.937202    6.246846    0.473069
     79          1           0       -5.978866    6.742108    1.655538
     80          1           0       -4.976640    5.398800    1.970158
     81          1           0       -9.823649    5.658984    0.821358
     82          1           0       -9.018090    7.885593   -0.125929
     83          1           0       -7.426737    7.345808   -0.356434
     84          1           0      -11.977457    3.441750   -1.897654
     85          1           0      -13.018212    1.726463   -1.909343
     86          1           0      -12.940598    2.590920   -0.267317
     87          1           0      -12.425031   -1.669681   -1.184673
     88          1           0      -13.317041   -0.320540   -1.721282
     89          1           0      -12.963047   -1.728650   -3.799870
     90          1           0      -12.280167   -0.264052   -3.859106
     91          1           0      -11.186336   -1.936997   -3.571072
     92          1           0       -9.363508   -4.830021   -1.502392
     93          1           0       -8.143900   -5.742841   -0.788603
     94          1           0       -9.592305   -4.765310    0.059886
     95          1           0       -3.686079   -3.306719   -0.317221
     96          1           0       -1.468857   -4.525840    3.150013
     97          1           0       -3.181928   -5.101170    3.885524
     98          1           0       -2.040762   -6.231749    2.789408
     99          1           0        2.733826   -1.578649   -1.569554
    100          1           0        2.715902    0.059961   -2.074682
    101          1           0        4.190291   -0.665062    0.532393
    102          1           0        3.934987    1.533018   -2.577909
    103          1           0        5.437702    2.349190   -1.882075
    104          1           0        5.744915    0.969054   -2.975113
    105          1           0        6.710486    1.997404   -0.092739
    106          1           0        6.212536    0.394853    0.890956
    107          1           0        7.193356   -1.001525   -0.976912
    108          1           0        7.664064    0.529535   -1.953078
    109          1           0        9.333529    1.177772    0.183153
    110          1           0        8.646277   -0.334274    0.887898
    111          1           0       10.314484    0.056939   -1.960475
    112          1           0        9.362624   -2.306989   -1.842808
    113          1           0       10.947226   -2.218404   -1.659978
    114          1           0        9.977423   -2.501516   -0.300562
    115          1           0       11.524499    0.823847    0.366461
    116          1           0       11.493741   -0.704184    0.775285
    117          1           0       12.950068   -1.422824   -1.033268
    118          1           0       12.871367   -0.009905   -1.767303
    119          1           0       13.804596    1.099404    0.282447
    120          1           0       14.099398   -0.501583    1.095324
    121          1           0       15.426921    0.426485   -1.321891
    122          1           0       15.664871   -2.521093   -0.305053
    123          1           0       15.013712   -2.012849   -1.792841
    124          1           0       16.617969   -1.734719   -1.356964
    125          1           0       16.178125    1.112343    1.095927
    126          1           0       16.705494   -0.686442    1.104047
    127          1           0       18.160760   -0.629847   -0.582520
    128          1           0       17.699665    1.009387   -1.143391
    129          1           0       18.555490    1.862190    1.262715
    130          1           0       18.928695    0.393701    1.686075
    131          1           0       20.840022    0.206027    0.130287
    132          1           0       20.247054    3.006719   -0.789938
    133          1           0       21.504526    1.853631   -1.476581
    134          1           0       19.750381    1.584242   -1.829050
    135          1           0       21.340034    1.184653    2.179655
    136          1           0       22.244576    1.862432    0.989809
    137          1           0       21.060639    2.673745    1.444650
 ---------------------------------------------------------------------

 SCF Done:  E(RCAM-B3LYP) =  -2932.66595723     A.U. after   18 cycles

 Excitation energies and oscillator strengths:

 Excited State   1:      Singlet-A      2.0539 eV  603.67 nm  f=0.2261  <S**2>=0.000
     240 -> 243       -0.26511
     241 -> 242        0.64668
 This state for optimization and/or second-order correction.
 Total Energy, E(TD-HF/TD-KS) =  -2932.59047960
 Copying the excited state density for this state as the 1-particle RhoCI density.

 The electronic state is 1-A.
 Alpha  occ. eigenvalues --  -46.84544 -19.25721 -19.25169 -19.22992 -19.21613
 Alpha  occ. eigenvalues --  -19.20892 -14.42047 -14.39610 -14.39508 -14.39096
 Alpha  occ. eigenvalues --  -10.40707 -10.39343 -10.36387 -10.31326 -10.31205
 Alpha  occ. eigenvalues --  -10.31121 -10.30890 -10.29745 -10.29469 -10.29422
 Alpha  occ. eigenvalues --  -10.29036 -10.28914 -10.28899 -10.28891 -10.28760
 Alpha  occ. eigenvalues --  -10.28747 -10.28422 -10.27965 -10.27757 -10.27727
 Alpha  occ. eigenvalues --  -10.27478 -10.27412 -10.27370 -10.27324 -10.27288
 Alpha  occ. eigenvalues --  -10.27224 -10.27153 -10.27150 -10.27095 -10.26734
 Alpha  occ. eigenvalues --  -10.26689 -10.26678 -10.26668 -10.26558 -10.26500
 Alpha  occ. eigenvalues --  -10.26431 -10.26429 -10.26396 -10.25903 -10.25827
 Alpha  occ. eigenvalues --  -10.25723 -10.25620 -10.25507 -10.25422 -10.25207
 Alpha  occ. eigenvalues --  -10.24975 -10.24967 -10.24940 -10.24489 -10.24442
 Alpha  occ. eigenvalues --  -10.23933 -10.23903 -10.23367 -10.22822 -10.21337
 Alpha  occ. eigenvalues --   -3.13555  -1.88268  -1.87809  -1.87714  -1.18067
 Alpha  occ. eigenvalues --   -1.15257  -1.09541  -1.08614  -1.07896  -1.05167
 Alpha  occ. eigenvalues --   -1.04055  -1.03841  -1.02194  -0.93529  -0.91162
 Alpha  occ. eigenvalues --   -0.90885  -0.90116  -0.89727  -0.89102  -0.89080
 Alpha  occ. eigenvalues --   -0.88276  -0.87927  -0.87713  -0.87272  -0.86074
 Alpha  occ. eigenvalues --   -0.85314  -0.84386  -0.83798  -0.83376  -0.82881
 Alpha  occ. eigenvalues --   -0.81290  -0.81006  -0.80401  -0.79703  -0.78985
 Alpha  occ. eigenvalues --   -0.77859  -0.76710  -0.76562  -0.75976  -0.75667
 Alpha  occ. eigenvalues --   -0.75400  -0.74770  -0.74478  -0.73409  -0.73029
 Alpha  occ. eigenvalues --   -0.71787  -0.70876  -0.70383  -0.69839  -0.68910
 Alpha  occ. eigenvalues --   -0.67457  -0.66486  -0.65479  -0.65211  -0.65077
 Alpha  occ. eigenvalues --   -0.64159  -0.63960  -0.63404  -0.62812  -0.62234
 Alpha  occ. eigenvalues --   -0.62082  -0.61026  -0.60323  -0.59810  -0.59294
 Alpha  occ. eigenvalues --   -0.59221  -0.58864  -0.58410  -0.57920  -0.56895
 Alpha  occ. eigenvalues --   -0.56401  -0.55214  -0.55074  -0.54979  -0.54522
 Alpha  occ. eigenvalues --   -0.54212  -0.53837  -0.53655  -0.53549  -0.53081
 Alpha  occ. eigenvalues --   -0.52927  -0.52845  -0.52718  -0.52395  -0.51883
 Alpha  occ. eigenvalues --   -0.51485  -0.51244  -0.51164  -0.50975  -0.50702
 Alpha  occ. eigenvalues --   -0.50428  -0.50101  -0.49906  -0.49735  -0.49675
 Alpha  occ. eigenvalues --   -0.49352  -0.49054  -0.48994  -0.48759  -0.48409
 Alpha  occ. eigenvalues --   -0.48305  -0.48188  -0.47951  -0.47836  -0.47541
 Alpha  occ. eigenvalues --   -0.47222  -0.46999  -0.46877  -0.46558  -0.46419
 Alpha  occ. eigenvalues --   -0.46050  -0.45898  -0.45533  -0.44968  -0.44790
 Alpha  occ. eigenvalues --   -0.44642  -0.44425  -0.44338  -0.44268  -0.44005
 Alpha  occ. eigenvalues --   -0.43856  -0.43740  -0.43625  -0.43509  -0.43328
 Alpha  occ. eigenvalues --   -0.43230  -0.43081  -0.42954  -0.42687  -0.42624
 Alpha  occ. eigenvalues --   -0.42360  -0.42132  -0.42045  -0.41759  -0.41634
 Alpha  occ. eigenvalues --   -0.41457  -0.41365  -0.41200  -0.40696  -0.40519
 Alpha  occ. eigenvalues --   -0.40361  -0.40248  -0.40082  -0.40045  -0.39689
 Alpha  occ. eigenvalues --   -0.39169  -0.38846  -0.38160  -0.38101  -0.37660
 Alpha  occ. eigenvalues --   -0.37578  -0.37375  -0.37255  -0.36955  -0.36732
 Alpha  occ. eigenvalues --   -0.36435  -0.36281  -0.35841  -0.35653  -0.35393
 Alpha  occ. eigenvalues --   -0.35107  -0.34859  -0.34524  -0.34467  -0.34301
 Alpha  occ. eigenvalues --   -0.33827  -0.33659  -0.32245  -0.30824  -0.30240
 Alpha  occ. eigenvalues --   -0.29993  -0.29933  -0.28340  -0.27720  -0.23062
 Alpha  occ. eigenvalues --   -0.21332
 Alpha virt. eigenvalues --   -0.06503  -0.03103   0.00842   0.04222   0.04594
 Alpha virt. eigenvalues --    0.05440   0.06066   0.06437   0.06615   0.06740
 Alpha virt. eigenvalues --    0.07945   0.10227   0.10654   0.11211   0.11549

 Mulliken charges:
               1
     1  Mg   0.819860
     2  C    0.061103
     3  C   -0.234241
     4  C   -0.164874
     5  C   -0.145435
     6  N   -0.639406
     7  C    0.315574
     8  C   -0.172621
     9  C   -0.167526
    10  C    0.370758
    11  C   -0.299999
    12  C   -0.164691
    13  C   -0.259366
    14  C    0.594592
    15  O   -0.450719
    16  O   -0.514704
    17  N   -0.704832
    18  C    0.385676
    19  C   -0.038855
    20  C    0.016051
    21  C    0.236910
    22  C   -0.300577
    23  C   -0.083620
    24  C   -0.224341
    25  N   -0.688837
    26  C    0.336309
    27  C   -0.006871
    28  C    0.029123
    29  C    0.267179
    30  C   -0.357145
    31  C   -0.239514
    32  C   -0.309919
    33  N   -0.740147
    34  C    0.252549
    35  C    0.006935
    36  C    0.025076
    37  C    0.293474
    38  C   -0.339406
    39  C    0.355264
    40  O   -0.480421
    41  C   -0.313864
    42  C    0.622482
    43  O   -0.459209
    44  O   -0.436459
    45  C   -0.071169
    46  C    0.023848
    47  C   -0.131035
    48  C    0.086943
    49  C   -0.337748
    50  C   -0.211435
    51  C   -0.161513
    52  C   -0.166675
    53  C   -0.058512
    54  C   -0.314454
    55  C   -0.177606
    56  C   -0.178079
    57  C   -0.170857
    58  C   -0.059095
    59  C   -0.333599
    60  C   -0.185546
    61  C   -0.176166
    62  C   -0.172877
    63  C   -0.062177
    64  C   -0.320761
    65  C   -0.310730
    66  H    0.073324
    67  H    0.095628
    68  H    0.071827
    69  H    0.128832
    70  H    0.106590
    71  H    0.120861
    72  H    0.097639
    73  H    0.126356
    74  H    0.130891
    75  H    0.121435
    76  H    0.135086
    77  H    0.143519
    78  H    0.108668
    79  H    0.117911
    80  H    0.100891
    81  H    0.100264
    82  H    0.101214
    83  H    0.102633
    84  H    0.107182
    85  H    0.105903
    86  H    0.118232
    87  H    0.114044
    88  H    0.107256
    89  H    0.098825
    90  H    0.105123
    91  H    0.113324
    92  H    0.133452
    93  H    0.151501
    94  H    0.086432
    95  H    0.164433
    96  H    0.090825
    97  H    0.114010
    98  H    0.116476
    99  H    0.123659
   100  H    0.119584
   101  H    0.088242
   102  H    0.096594
   103  H    0.126262
   104  H    0.100826
   105  H    0.072490
   106  H    0.101645
   107  H    0.106291
   108  H    0.102014
   109  H    0.087960
   110  H    0.097797
   111  H    0.054848
   112  H    0.098840
   113  H    0.110653
   114  H    0.081766
   115  H    0.080933
   116  H    0.104323
   117  H    0.107550
   118  H    0.084567
   119  H    0.090205
   120  H    0.070082
   121  H    0.084397
   122  H    0.108252
   123  H    0.100439
   124  H    0.115565
   125  H    0.087067
   126  H    0.086114
   127  H    0.087762
   128  H    0.089469
   129  H    0.096354
   130  H    0.080179
   131  H    0.099154
   132  H    0.096527
   133  H    0.095645
   134  H    0.095176
   135  H    0.092077
   136  H    0.108523
   137  H    0.097505
 Sum of Mulliken charges =   0.00000

 Dipole moment (field-independent basis, Debye):
    X=              0.2176    Y=              4.7507    Z=             -0.0413  Tot=              4.7558
 Quadrupole moment (field-independent basis, Debye-Ang):
   XX=           -326.7979   YY=           -399.5557   ZZ=           -399.7234
   XY=            -24.2333   XZ=             15.0132   YZ=              3.1418

 Normal termination of Gaussian 09 at Thu Jun 27 08:41:00 2019.
