 Gaussian 09, Revision D.01,
 Gaussian 09:  ES64L-G09RevD.01 24-Apr-2013

 -------------------------------------
 # td=(NStates=1) CAM-B3LYP/6-31G(d,p)
 -------------------------------------

 --
 TD
 --
 Symbolic Z-matrix:
 Charge =  0 Multiplicity = 1

                         Standard orientation:
 ---------------------------------------------------------------------
 Center     Atomic      Atomic             Coordinates (Angstroms)
 Number     Number       Type             X           Y           Z
 ---------------------------------------------------------------------
      1         12           0       -7.195082    0.634852    0.005067
      2          6           0       -4.888052   -1.922865    0.556041
      3          6           0       -4.930868    2.880987    1.128287
      4          6           0       -9.472796    3.177777   -0.340329
      5          6           0       -9.481596   -1.793668   -0.909174
      6          7           0       -5.162168    0.392992    0.779231
      7          6           0       -4.377986   -0.646596    0.654383
      8          6           0       -2.974196   -0.377044    1.129200
      9          6           0       -3.110650    1.134078    1.624983
     10          6           0       -4.485849    1.512242    1.081008
     11          6           0       -2.965782    1.235515    3.222171
     12          6           0       -1.913379   -0.602906   -0.004621
     13          6           0       -0.462633   -0.396823    0.500955
     14          6           0        0.578129   -0.485671   -0.626094
     15          8           0        0.221939   -0.864033   -1.772621
     16          8           0        1.763357   -0.400217   -0.160804
     17          7           0       -7.265123    2.557611    0.356702
     18          6           0       -6.230020    3.387563    0.740458
     19          6           0       -6.522055    4.786950    0.797910
     20          6           0       -7.817231    4.789584    0.399808
     21          6           0       -8.244250    3.450570    0.039538
     22          6           0       -5.585601    5.850020    1.464748
     23          6           0       -8.730066    5.913421    0.351080
     24          6           0       -8.355909    7.164637    0.246990
     25          7           0       -9.155070    0.645870   -0.633491
     26          6           0       -9.879208    1.847653   -0.655689
     27          6           0      -11.281935    1.363753   -1.112250
     28          6           0      -11.220694    0.024579   -1.312351
     29          6           0       -9.920658   -0.462051   -1.005810
     30          6           0      -12.493749    2.281696   -1.271149
     31          6           0      -12.450081   -0.823715   -1.785385
     32          6           0      -12.295816   -1.256119   -3.302835
     33          7           0       -7.181559   -1.344963   -0.197854
     34          6           0       -8.172779   -2.286937   -0.626206
     35          6           0       -7.802347   -3.664638   -0.508109
     36          6           0       -6.459518   -3.503859   -0.091894
     37          6           0       -6.190356   -2.215831    0.063643
     38          6           0       -8.719034   -4.849225   -0.890843
     39          6           0       -5.340317   -4.298214    0.216253
     40          8           0       -5.181262   -5.482243    0.288115
     41          6           0       -4.173572   -3.256670    0.520589
     42          6           0       -3.549993   -3.577456    1.900808
     43          8           0       -3.774892   -3.062277    2.957101
     44          8           0       -2.595157   -4.636039    1.869753
     45          6           0       -2.131210   -5.107728    3.152533
     46          6           0        2.890179   -0.530242   -1.119232
     47          6           0        4.043176   -0.382292   -0.423083
     48          6           0        5.137450    0.335133   -0.848874
     49          6           0        5.039263    1.143927   -2.129697
     50          6           0        6.543479    0.262012   -0.045049
     51          6           0        7.635748   -0.028796   -0.905222
     52          6           0        8.961578   -0.118750   -0.055610
     53          6           0       10.262761   -0.517056   -0.852616
     54          6           0       10.228842   -2.056649   -1.391994
     55          6           0       11.456240   -0.336935    0.018046
     56          6           0       12.858218   -0.432799   -0.753717
     57          6           0       14.044816   -0.095880    0.111835
     58          6           0       15.415513   -0.258211   -0.486190
     59          6           0       15.801273   -1.723103   -0.891421
     60          6           0       16.522570    0.317343    0.407885
     61          6           0       17.886730    0.556808   -0.243097
     62          6           0       18.861469    1.322592    0.673957
     63          6           0       20.321628    1.306424    0.143012
     64          6           0       20.505694    2.228108   -1.024815
     65          6           0       21.261830    1.891524    1.252813
     66          1           0       -4.094071    3.632509    1.520938
     67          1           0      -10.301862    3.854739   -0.357272
     68          1           0      -10.315183   -2.550626   -1.172075
     69          1           0       -2.597612   -0.975440    1.855148
     70          1           0       -2.616535    1.794912    1.078878
     71          1           0       -1.932448    0.960192    3.518223
     72          1           0       -3.156715    2.176930    3.685144
     73          1           0       -3.605418    0.539490    3.558738
     74          1           0       -1.950757   -1.580205   -0.377671
     75          1           0       -2.013575    0.131348   -0.780823
     76          1           0       -0.256211    0.570891    0.970373
     77          1           0       -0.118196   -1.113228    1.331238
     78          1           0       -4.959940    6.180693    0.785504
     79          1           0       -6.159499    6.669481    1.820400
     80          1           0       -4.980901    5.468133    2.254238
     81          1           0       -9.779456    5.604050    0.261230
     82          1           0       -9.121748    7.861295   -0.000930
     83          1           0       -7.257854    7.573310    0.419582
     84          1           0      -12.379841    2.636518   -2.300986
     85          1           0      -13.473486    1.657272   -1.247916
     86          1           0      -12.355576    3.051976   -0.548425
     87          1           0      -12.217434   -1.911146   -1.283667
     88          1           0      -13.465976   -0.396814   -1.395480
     89          1           0      -13.187251   -1.914177   -3.520272
     90          1           0      -12.328748   -0.308883   -3.814754
     91          1           0      -11.304762   -1.654912   -3.426821
     92          1           0       -8.775052   -4.729325   -1.945881
     93          1           0       -8.028650   -5.837746   -0.657439
     94          1           0       -9.707689   -4.696181   -0.203327
     95          1           0       -3.354744   -3.594691   -0.156670
     96          1           0       -1.467564   -4.367343    3.831873
     97          1           0       -2.963222   -5.646212    3.777635
     98          1           0       -1.388617   -5.824326    3.015216
     99          1           0        2.874430   -1.432989   -1.534498
    100          1           0        2.581175   -0.021060   -1.929923
    101          1           0        3.953779   -0.849379    0.593423
    102          1           0        4.033246    1.313291   -2.621091
    103          1           0        5.673649    2.179235   -2.109353
    104          1           0        5.640968    0.847024   -3.044905
    105          1           0        6.589838    1.219102    0.346563
    106          1           0        6.161029   -0.531568    0.891280
    107          1           0        7.576041   -1.072893   -1.234524
    108          1           0        7.542994    0.504957   -2.053205
    109          1           0        9.060181    0.849626    0.344969
    110          1           0        8.922251   -0.926234    0.833842
    111          1           0       10.433931    0.095591   -1.891744
    112          1           0        9.431025   -2.230868   -2.190007
    113          1           0       11.189913   -2.590668   -1.740035
    114          1           0        9.850439   -2.597249   -0.555632
    115          1           0       11.518620    0.565408    0.262491
    116          1           0       11.551267   -0.771954    0.957742
    117          1           0       13.028713   -1.492062   -1.069094
    118          1           0       12.795737    0.300539   -1.695346
    119          1           0       13.906090    1.043013    0.530802
    120          1           0       13.929855   -0.659804    1.024164
    121          1           0       15.450636    0.369527   -1.288963
    122          1           0       15.755543   -2.399761   -0.022195
    123          1           0       15.252882   -2.034986   -1.698728
    124          1           0       16.821269   -1.827847   -1.262527
    125          1           0       16.065602    1.233109    0.752623
    126          1           0       16.562941   -0.350971    1.419123
    127          1           0       18.365516   -0.450488   -0.568604
    128          1           0       17.586256    1.044716   -1.336245
    129          1           0       18.504303    2.276590    0.870045
    130          1           0       18.925110    0.745217    1.601221
    131          1           0       20.709379    0.189867    0.067201
    132          1           0       19.928354    3.172698   -0.830462
    133          1           0       21.546104    2.386595   -1.254350
    134          1           0       19.954820    1.635999   -1.923419
    135          1           0       20.942422    1.305593    2.207138
    136          1           0       22.409999    1.922327    0.947393
    137          1           0       21.048431    3.020928    1.352144
 ---------------------------------------------------------------------

 SCF Done:  E(RCAM-B3LYP) =  -2932.65241132     A.U. after   18 cycles

 Excitation energies and oscillator strengths:

 Excited State   1:      Singlet-A      2.1050 eV  589.00 nm  f=0.2116  <S**2>=0.000
     240 -> 242       -0.18081
     240 -> 243        0.24800
     241 -> 242        0.61852
     241 -> 243        0.12679
 This state for optimization and/or second-order correction.
 Total Energy, E(TD-HF/TD-KS) =  -2932.57505421
 Copying the excited state density for this state as the 1-particle RhoCI density.

 The electronic state is 1-A.
 Alpha  occ. eigenvalues --  -46.83641 -19.27137 -19.24265 -19.20361 -19.19437
 Alpha  occ. eigenvalues --  -19.19221 -14.41145 -14.40044 -14.39488 -14.38828
 Alpha  occ. eigenvalues --  -10.38429 -10.38346 -10.33688 -10.31159 -10.31133
 Alpha  occ. eigenvalues --  -10.30850 -10.30346 -10.29860 -10.29435 -10.29351
 Alpha  occ. eigenvalues --  -10.29050 -10.28702 -10.28687 -10.28609 -10.28602
 Alpha  occ. eigenvalues --  -10.28409 -10.28306 -10.28266 -10.28090 -10.28024
 Alpha  occ. eigenvalues --  -10.27839 -10.27579 -10.27474 -10.27438 -10.27286
 Alpha  occ. eigenvalues --  -10.27261 -10.27245 -10.27198 -10.27114 -10.27057
 Alpha  occ. eigenvalues --  -10.26979 -10.26925 -10.26585 -10.26472 -10.26468
 Alpha  occ. eigenvalues --  -10.26240 -10.26232 -10.26222 -10.26137 -10.26050
 Alpha  occ. eigenvalues --  -10.25945 -10.25894 -10.25596 -10.25504 -10.25473
 Alpha  occ. eigenvalues --  -10.25383 -10.25360 -10.25344 -10.25271 -10.24940
 Alpha  occ. eigenvalues --  -10.24929 -10.24906 -10.23746 -10.23712 -10.22934
 Alpha  occ. eigenvalues --   -3.12858  -1.87546  -1.87096  -1.87058  -1.19604
 Alpha  occ. eigenvalues --   -1.15618  -1.11326  -1.07217  -1.06656  -1.05591
 Alpha  occ. eigenvalues --   -1.04815  -1.03427  -1.00866  -0.92414  -0.92265
 Alpha  occ. eigenvalues --   -0.90786  -0.90509  -0.89848  -0.89656  -0.88920
 Alpha  occ. eigenvalues --   -0.88610  -0.87504  -0.87283  -0.86918  -0.86474
 Alpha  occ. eigenvalues --   -0.85051  -0.84107  -0.83543  -0.82760  -0.82318
 Alpha  occ. eigenvalues --   -0.81739  -0.80800  -0.79944  -0.79759  -0.79409
 Alpha  occ. eigenvalues --   -0.77913  -0.77071  -0.76015  -0.75802  -0.75557
 Alpha  occ. eigenvalues --   -0.75192  -0.74702  -0.74031  -0.73738  -0.72532
 Alpha  occ. eigenvalues --   -0.72128  -0.70430  -0.69255  -0.68776  -0.68125
 Alpha  occ. eigenvalues --   -0.67128  -0.66769  -0.66623  -0.65310  -0.64835
 Alpha  occ. eigenvalues --   -0.63814  -0.63395  -0.63256  -0.62612  -0.61792
 Alpha  occ. eigenvalues --   -0.61369  -0.61037  -0.60198  -0.59780  -0.59276
 Alpha  occ. eigenvalues --   -0.58145  -0.57993  -0.57166  -0.56725  -0.55756
 Alpha  occ. eigenvalues --   -0.55484  -0.55204  -0.54583  -0.54457  -0.54143
 Alpha  occ. eigenvalues --   -0.53892  -0.53630  -0.53406  -0.53055  -0.52529
 Alpha  occ. eigenvalues --   -0.52434  -0.52190  -0.51800  -0.51631  -0.51447
 Alpha  occ. eigenvalues --   -0.51310  -0.50914  -0.50887  -0.50756  -0.50645
 Alpha  occ. eigenvalues --   -0.50487  -0.49939  -0.49694  -0.49471  -0.49405
 Alpha  occ. eigenvalues --   -0.49140  -0.49043  -0.48643  -0.48596  -0.48428
 Alpha  occ. eigenvalues --   -0.48200  -0.48154  -0.47839  -0.47526  -0.47470
 Alpha  occ. eigenvalues --   -0.47288  -0.46750  -0.46619  -0.46349  -0.46102
 Alpha  occ. eigenvalues --   -0.45930  -0.45761  -0.45299  -0.45203  -0.45058
 Alpha  occ. eigenvalues --   -0.44861  -0.44651  -0.44430  -0.44404  -0.44264
 Alpha  occ. eigenvalues --   -0.43888  -0.43704  -0.43646  -0.43228  -0.43170
 Alpha  occ. eigenvalues --   -0.43055  -0.42932  -0.42773  -0.42636  -0.42456
 Alpha  occ. eigenvalues --   -0.42207  -0.42023  -0.41777  -0.41680  -0.41606
 Alpha  occ. eigenvalues --   -0.41383  -0.40973  -0.40884  -0.40239  -0.40179
 Alpha  occ. eigenvalues --   -0.39963  -0.39713  -0.39376  -0.39298  -0.39179
 Alpha  occ. eigenvalues --   -0.38925  -0.38461  -0.38358  -0.38343  -0.38013
 Alpha  occ. eigenvalues --   -0.37722  -0.37494  -0.37344  -0.37096  -0.36706
 Alpha  occ. eigenvalues --   -0.36606  -0.36404  -0.35793  -0.35743  -0.35482
 Alpha  occ. eigenvalues --   -0.34692  -0.34670  -0.34282  -0.34090  -0.33192
 Alpha  occ. eigenvalues --   -0.32899  -0.32172  -0.32076  -0.30476  -0.29353
 Alpha  occ. eigenvalues --   -0.29289  -0.29279  -0.28768  -0.27677  -0.23013
 Alpha  occ. eigenvalues --   -0.21429
 Alpha virt. eigenvalues --   -0.06463  -0.03008   0.02172   0.04580   0.05237
 Alpha virt. eigenvalues --    0.05964   0.06409   0.06934   0.07408   0.07649
 Alpha virt. eigenvalues --    0.08591   0.09490   0.10605   0.11320   0.11609

 Mulliken charges:
               1
     1  Mg   0.823470
     2  C    0.087861
     3  C   -0.223124
     4  C   -0.178400
     5  C   -0.178570
     6  N   -0.595454
     7  C    0.300824
     8  C   -0.174229
     9  C   -0.130041
    10  C    0.298929
    11  C   -0.309819
    12  C   -0.163202
    13  C   -0.288839
    14  C    0.598395
    15  O   -0.520918
    16  O   -0.451369
    17  N   -0.719608
    18  C    0.295170
    19  C    0.031248
    20  C   -0.021208
    21  C    0.372883
    22  C   -0.356767
    23  C   -0.046718
    24  C   -0.250301
    25  N   -0.717140
    26  C    0.273558
    27  C   -0.033290
    28  C    0.035752
    29  C    0.299390
    30  C   -0.354753
    31  C   -0.243486
    32  C   -0.297470
    33  N   -0.706218
    34  C    0.217301
    35  C    0.041548
    36  C    0.019523
    37  C    0.305904
    38  C   -0.353489
    39  C    0.330971
    40  O   -0.453128
    41  C   -0.353001
    42  C    0.622915
    43  O   -0.445537
    44  O   -0.490678
    45  C   -0.061962
    46  C    0.032177
    47  C   -0.153353
    48  C    0.106551
    49  C   -0.385430
    50  C   -0.194431
    51  C   -0.179234
    52  C   -0.183445
    53  C   -0.063322
    54  C   -0.323512
    55  C   -0.155882
    56  C   -0.185393
    57  C   -0.173045
    58  C   -0.050505
    59  C   -0.320823
    60  C   -0.160806
    61  C   -0.169971
    62  C   -0.157734
    63  C   -0.060917
    64  C   -0.285407
    65  C   -0.294224
    66  H    0.081043
    67  H    0.097599
    68  H    0.089787
    69  H    0.120489
    70  H    0.102115
    71  H    0.106348
    72  H    0.109464
    73  H    0.145590
    74  H    0.130357
    75  H    0.115540
    76  H    0.121893
    77  H    0.123277
    78  H    0.141610
    79  H    0.124562
    80  H    0.128608
    81  H    0.090890
    82  H    0.105158
    83  H    0.100075
    84  H    0.131761
    85  H    0.105418
    86  H    0.117419
    87  H    0.073676
    88  H    0.099355
    89  H    0.106643
    90  H    0.113047
    91  H    0.119703
    92  H    0.149351
    93  H    0.136806
    94  H    0.124427
    95  H    0.163565
    96  H    0.089401
    97  H    0.114693
    98  H    0.124380
    99  H    0.149612
   100  H    0.131636
   101  H    0.108185
   102  H    0.120646
   103  H    0.095401
   104  H    0.116486
   105  H    0.122422
   106  H    0.080183
   107  H    0.113848
   108  H    0.084936
   109  H    0.106618
   110  H    0.089974
   111  H    0.068126
   112  H    0.090754
   113  H    0.103372
   114  H    0.103275
   115  H    0.107476
   116  H    0.092095
   117  H    0.095106
   118  H    0.070407
   119  H    0.054845
   120  H    0.092078
   121  H    0.091103
   122  H    0.100349
   123  H    0.109688
   124  H    0.099937
   125  H    0.087930
   126  H    0.056412
   127  H    0.087029
   128  H    0.065679
   129  H    0.102725
   130  H    0.095977
   131  H    0.077187
   132  H    0.102287
   133  H    0.106557
   134  H    0.078433
   135  H    0.085650
   136  H    0.087083
   137  H    0.086225
 Sum of Mulliken charges =   0.00000

 Dipole moment (field-independent basis, Debye):
    X=              1.9286    Y=              6.6650    Z=             -0.0500  Tot=              6.9386
 Quadrupole moment (field-independent basis, Debye-Ang):
   XX=           -343.3642   YY=           -389.9864   ZZ=           -400.0040
   XY=            -31.2640   XZ=             11.7197   YZ=              2.3959

 Normal termination of Gaussian 09 at Fri Jun 28 12:04:15 2019.
