 Gaussian 09, Revision D.01,
 Gaussian 09:  ES64L-G09RevD.01 24-Apr-2013

 -------------------------------------
 # td=(NStates=1) CAM-B3LYP/6-31G(d,p)
 -------------------------------------

 --
 TD
 --
 Symbolic Z-matrix:
 Charge =  0 Multiplicity = 1

                         Standard orientation:
 ---------------------------------------------------------------------
 Center     Atomic      Atomic             Coordinates (Angstroms)
 Number     Number       Type             X           Y           Z
 ---------------------------------------------------------------------
      1         12           0       -7.174775    0.613394    0.037455
      2          6           0       -4.747063   -1.971199    0.487012
      3          6           0       -4.817002    2.837325    1.232056
      4          6           0       -9.438307    3.018174   -0.336703
      5          6           0       -9.505806   -1.700477   -0.875399
      6          7           0       -5.111436    0.458931    0.762982
      7          6           0       -4.325408   -0.674776    0.717739
      8          6           0       -2.937436   -0.315134    1.152627
      9          6           0       -2.965090    1.112168    1.677812
     10          6           0       -4.415963    1.501637    1.201212
     11          6           0       -2.898926    1.253124    3.074385
     12          6           0       -2.014168   -0.616295    0.084864
     13          6           0       -0.482928   -0.430688    0.562285
     14          6           0        0.500973   -0.678021   -0.504140
     15          8           0        0.173835   -0.940048   -1.617763
     16          8           0        1.711045   -0.433108   -0.033164
     17          7           0       -7.044535    2.611108    0.317586
     18          6           0       -6.092323    3.341161    0.799920
     19          6           0       -6.415729    4.731962    0.952869
     20          6           0       -7.795057    4.799276    0.524803
     21          6           0       -8.169822    3.383331    0.168295
     22          6           0       -5.623430    5.835264    1.369955
     23          6           0       -8.657507    5.998435    0.435405
     24          6           0       -8.331891    7.215677    0.196248
     25          7           0       -9.065223    0.654309   -0.586799
     26          6           0       -9.828498    1.790500   -0.644055
     27          6           0      -11.179958    1.419072   -1.148838
     28          6           0      -11.222953    0.162396   -1.368100
     29          6           0       -9.898293   -0.353600   -1.012454
     30          6           0      -12.256270    2.350672   -1.408920
     31          6           0      -12.322373   -0.787374   -1.731073
     32          6           0      -12.313617   -1.158607   -3.301693
     33          7           0       -7.161581   -1.353419   -0.154027
     34          6           0       -8.170554   -2.277614   -0.663929
     35          6           0       -7.827738   -3.623758   -0.427852
     36          6           0       -6.431564   -3.555363   -0.092103
     37          6           0       -6.179873   -2.172171    0.091513
     38          6           0       -8.718351   -4.827226   -0.710845
     39          6           0       -5.311706   -4.307666    0.212720
     40          8           0       -5.203806   -5.530542    0.162362
     41          6           0       -4.079810   -3.302033    0.489133
     42          6           0       -3.423120   -3.731617    1.776997
     43          8           0       -3.590173   -3.303373    2.899389
     44          8           0       -2.697182   -4.818567    1.596436
     45          6           0       -2.099687   -5.257643    2.864370
     46          6           0        2.775142   -0.514670   -1.134805
     47          6           0        4.093008   -0.305932   -0.510112
     48          6           0        5.094683    0.472049   -0.922750
     49          6           0        5.035424    1.358093   -2.180184
     50          6           0        6.399985    0.563381   -0.093755
     51          6           0        7.606993    0.032487   -0.881015
     52          6           0        8.837849   -0.085719    0.003882
     53          6           0       10.091876   -0.602835   -0.725252
     54          6           0       10.006461   -2.085988   -1.249282
     55          6           0       11.445549   -0.333831    0.036118
     56          6           0       12.743688   -0.432087   -0.676969
     57          6           0       13.995911   -0.272856    0.161291
     58          6           0       15.397532   -0.207687   -0.605321
     59          6           0       15.675599   -1.715147   -0.984294
     60          6           0       16.420708    0.501139    0.323620
     61          6           0       17.808055    0.545112   -0.347350
     62          6           0       18.749733    1.236792    0.653072
     63          6           0       20.220974    1.316681    0.126269
     64          6           0       20.473502    2.116249   -1.081606
     65          6           0       21.114817    1.814870    1.330121
     66          1           0       -3.854944    3.279668    1.630180
     67          1           0      -10.091345    3.902131   -0.300497
     68          1           0      -10.079538   -2.554902   -1.076341
     69          1           0       -2.546613   -0.931523    1.946009
     70          1           0       -2.351536    1.804734    1.065199
     71          1           0       -1.847159    0.855076    3.509550
     72          1           0       -3.013081    2.265739    3.397101
     73          1           0       -3.719497    0.711041    3.588927
     74          1           0       -2.008745   -1.582400   -0.261686
     75          1           0       -2.089504    0.128113   -0.694297
     76          1           0       -0.072295    0.349854    1.091962
     77          1           0       -0.342423   -1.228441    1.128590
     78          1           0       -4.762179    5.959305    0.455651
     79          1           0       -6.169458    6.892173    1.516667
     80          1           0       -5.071414    5.668189    2.477007
     81          1           0       -9.777248    5.858022    0.410167
     82          1           0       -9.263865    8.034871   -0.122317
     83          1           0       -7.264520    7.575048    0.208420
     84          1           0      -12.008307    3.002310   -2.376705
     85          1           0      -13.175002    2.008339   -1.780445
     86          1           0      -12.408092    3.200560   -0.607675
     87          1           0      -12.210507   -1.791657   -1.064422
     88          1           0      -13.247827   -0.221654   -1.606722
     89          1           0      -13.048400   -1.799511   -3.330083
     90          1           0      -12.559511   -0.175833   -3.703503
     91          1           0      -11.328757   -1.517840   -3.584585
     92          1           0       -8.930644   -5.051393   -1.815945
     93          1           0       -8.399894   -5.857833   -0.110710
     94          1           0       -9.678272   -4.443254   -0.265259
     95          1           0       -3.433859   -3.491735   -0.487289
     96          1           0       -1.747978   -4.469196    3.365054
     97          1           0       -3.013250   -5.748085    3.376639
     98          1           0       -1.447856   -6.226774    2.531179
     99          1           0        2.889791   -1.598054   -1.472630
    100          1           0        2.695299    0.162577   -1.826163
    101          1           0        4.287079   -1.008827    0.249721
    102          1           0        3.906729    1.279772   -2.506267
    103          1           0        5.599586    2.313916   -1.924133
    104          1           0        5.623879    0.867097   -2.969774
    105          1           0        6.466361    1.636511    0.014284
    106          1           0        6.198447    0.096095    0.704424
    107          1           0        7.288312   -1.068469   -1.274645
    108          1           0        7.939562    0.484828   -1.739210
    109          1           0        9.153234    1.080857    0.468360
    110          1           0        8.541776   -0.678308    0.775147
    111          1           0       10.218592    0.152777   -1.535350
    112          1           0        9.022661   -2.147356   -1.813076
    113          1           0       10.857375   -2.476863   -1.844084
    114          1           0        9.810190   -2.892988   -0.385670
    115          1           0       11.258715    0.623808    0.497244
    116          1           0       11.365219   -1.116796    0.901532
    117          1           0       12.728601   -1.461806   -1.052216
    118          1           0       12.753913    0.255434   -1.558729
    119          1           0       13.963165    0.767879    0.871018
    120          1           0       13.905774   -0.877282    1.047733
    121          1           0       15.319708    0.480396   -1.580814
    122          1           0       15.984002   -2.196341   -0.043795
    123          1           0       14.790909   -2.134321   -1.524600
    124          1           0       16.724792   -1.686055   -1.451817
    125          1           0       16.199869    1.545965    0.659883
    126          1           0       16.659639   -0.068458    1.227038
    127          1           0       18.269822   -0.531132   -0.585692
    128          1           0       17.797508    1.158746   -1.261318
    129          1           0       18.456816    2.291143    0.617470
    130          1           0       18.579342    0.801575    1.602784
    131          1           0       20.621012    0.281351   -0.201949
    132          1           0       20.127013    3.299915   -0.806879
    133          1           0       21.605807    2.263313   -1.326868
    134          1           0       19.758609    1.810963   -1.915965
    135          1           0       20.729662    1.163086    2.268560
    136          1           0       22.172913    1.729101    1.038510
    137          1           0       20.777363    2.786590    1.735601
 ---------------------------------------------------------------------

 SCF Done:  E(RCAM-B3LYP) =  -2932.64084164     A.U. after   18 cycles

 Excitation energies and oscillator strengths:

 Excited State   1:      Singlet-A      1.9441 eV  637.76 nm  f=0.3018  <S**2>=0.000
     240 -> 243       -0.19714
     241 -> 242        0.67310
 This state for optimization and/or second-order correction.
 Total Energy, E(TD-HF/TD-KS) =  -2932.56939877
 Copying the excited state density for this state as the 1-particle RhoCI density.

 The electronic state is 1-A.
 Alpha  occ. eigenvalues --  -46.84208 -19.26305 -19.25114 -19.19488 -19.19433
 Alpha  occ. eigenvalues --  -19.18541 -14.41160 -14.40443 -14.40193 -14.39267
 Alpha  occ. eigenvalues --  -10.37982 -10.37284 -10.33474 -10.31528 -10.31117
 Alpha  occ. eigenvalues --  -10.30845 -10.30792 -10.30191 -10.29810 -10.29799
 Alpha  occ. eigenvalues --  -10.29654 -10.29554 -10.29174 -10.28848 -10.28576
 Alpha  occ. eigenvalues --  -10.28537 -10.28426 -10.28131 -10.27904 -10.27882
 Alpha  occ. eigenvalues --  -10.27857 -10.27761 -10.27662 -10.27541 -10.27431
 Alpha  occ. eigenvalues --  -10.27423 -10.27272 -10.27050 -10.26884 -10.26852
 Alpha  occ. eigenvalues --  -10.26789 -10.26629 -10.26598 -10.26492 -10.26376
 Alpha  occ. eigenvalues --  -10.26322 -10.26163 -10.26047 -10.26003 -10.25729
 Alpha  occ. eigenvalues --  -10.25713 -10.25682 -10.25673 -10.25599 -10.25578
 Alpha  occ. eigenvalues --  -10.25219 -10.25114 -10.25112 -10.25024 -10.24973
 Alpha  occ. eigenvalues --  -10.24969 -10.24737 -10.24703 -10.24068 -10.24026
 Alpha  occ. eigenvalues --   -3.13447  -1.88137  -1.87709  -1.87626  -1.18321
 Alpha  occ. eigenvalues --   -1.17921  -1.09151  -1.08928  -1.07493  -1.05831
 Alpha  occ. eigenvalues --   -1.04266  -1.04065  -1.02860  -0.91951  -0.91755
 Alpha  occ. eigenvalues --   -0.91031  -0.90469  -0.90198  -0.89769  -0.89593
 Alpha  occ. eigenvalues --   -0.89293  -0.88247  -0.87835  -0.87128  -0.86534
 Alpha  occ. eigenvalues --   -0.85755  -0.84775  -0.84108  -0.83538  -0.83193
 Alpha  occ. eigenvalues --   -0.81939  -0.81056  -0.80563  -0.79853  -0.78833
 Alpha  occ. eigenvalues --   -0.78247  -0.77164  -0.76539  -0.75456  -0.74801
 Alpha  occ. eigenvalues --   -0.74676  -0.74444  -0.74163  -0.73205  -0.72697
 Alpha  occ. eigenvalues --   -0.71387  -0.70937  -0.69702  -0.69138  -0.67679
 Alpha  occ. eigenvalues --   -0.66776  -0.66508  -0.65225  -0.64706  -0.64534
 Alpha  occ. eigenvalues --   -0.63700  -0.63291  -0.62913  -0.62464  -0.61688
 Alpha  occ. eigenvalues --   -0.61172  -0.60455  -0.60297  -0.60198  -0.59494
 Alpha  occ. eigenvalues --   -0.58972  -0.58624  -0.57514  -0.57143  -0.57120
 Alpha  occ. eigenvalues --   -0.56196  -0.55823  -0.55313  -0.55116  -0.54643
 Alpha  occ. eigenvalues --   -0.54383  -0.54064  -0.53646  -0.53460  -0.53139
 Alpha  occ. eigenvalues --   -0.52902  -0.52883  -0.52525  -0.52331  -0.52019
 Alpha  occ. eigenvalues --   -0.51584  -0.51083  -0.51015  -0.50800  -0.50378
 Alpha  occ. eigenvalues --   -0.50231  -0.49906  -0.49777  -0.49618  -0.49501
 Alpha  occ. eigenvalues --   -0.49300  -0.49108  -0.48946  -0.48645  -0.48197
 Alpha  occ. eigenvalues --   -0.48116  -0.47854  -0.47364  -0.47226  -0.47049
 Alpha  occ. eigenvalues --   -0.46641  -0.46501  -0.46324  -0.46261  -0.45931
 Alpha  occ. eigenvalues --   -0.45878  -0.45623  -0.45476  -0.45366  -0.45151
 Alpha  occ. eigenvalues --   -0.44803  -0.44684  -0.44361  -0.44265  -0.44160
 Alpha  occ. eigenvalues --   -0.44146  -0.43779  -0.43665  -0.43443  -0.43210
 Alpha  occ. eigenvalues --   -0.43044  -0.42812  -0.42645  -0.42575  -0.42332
 Alpha  occ. eigenvalues --   -0.41971  -0.41924  -0.41850  -0.41629  -0.41530
 Alpha  occ. eigenvalues --   -0.41243  -0.41046  -0.40899  -0.40742  -0.40421
 Alpha  occ. eigenvalues --   -0.40134  -0.39968  -0.39808  -0.39642  -0.39479
 Alpha  occ. eigenvalues --   -0.38915  -0.38455  -0.38250  -0.37814  -0.37746
 Alpha  occ. eigenvalues --   -0.37614  -0.37537  -0.37032  -0.36938  -0.36833
 Alpha  occ. eigenvalues --   -0.36737  -0.36548  -0.36360  -0.35853  -0.35483
 Alpha  occ. eigenvalues --   -0.34878  -0.34647  -0.33975  -0.33149  -0.33026
 Alpha  occ. eigenvalues --   -0.32938  -0.32605  -0.31857  -0.31007  -0.30080
 Alpha  occ. eigenvalues --   -0.29675  -0.28808  -0.28742  -0.27662  -0.22999
 Alpha  occ. eigenvalues --   -0.21533
 Alpha virt. eigenvalues --   -0.07627  -0.01932   0.02148   0.04352   0.06087
 Alpha virt. eigenvalues --    0.06408   0.06461   0.06710   0.07966   0.08281
 Alpha virt. eigenvalues --    0.09445   0.10484   0.10807   0.11195   0.11657

 Mulliken charges:
               1
     1  Mg   0.832042
     2  C    0.097924
     3  C   -0.169557
     4  C   -0.167520
     5  C   -0.158556
     6  N   -0.632217
     7  C    0.297515
     8  C   -0.164908
     9  C   -0.121081
    10  C    0.283513
    11  C   -0.296693
    12  C   -0.161944
    13  C   -0.293921
    14  C    0.609424
    15  O   -0.478633
    16  O   -0.493731
    17  N   -0.704989
    18  C    0.321647
    19  C    0.088920
    20  C   -0.021843
    21  C    0.286113
    22  C   -0.389316
    23  C   -0.050651
    24  C   -0.249363
    25  N   -0.699722
    26  C    0.342104
    27  C    0.053882
    28  C    0.084063
    29  C    0.255166
    30  C   -0.397038
    31  C   -0.265366
    32  C   -0.298007
    33  N   -0.701463
    34  C    0.165774
    35  C    0.046437
    36  C    0.042144
    37  C    0.322249
    38  C   -0.360429
    39  C    0.311238
    40  O   -0.483377
    41  C   -0.346768
    42  C    0.630256
    43  O   -0.501781
    44  O   -0.442492
    45  C   -0.077710
    46  C    0.035535
    47  C   -0.151915
    48  C    0.085361
    49  C   -0.352416
    50  C   -0.184124
    51  C   -0.177368
    52  C   -0.155150
    53  C   -0.058555
    54  C   -0.316269
    55  C   -0.170859
    56  C   -0.162409
    57  C   -0.165253
    58  C   -0.049594
    59  C   -0.309469
    60  C   -0.177659
    61  C   -0.184966
    62  C   -0.173949
    63  C   -0.044058
    64  C   -0.283636
    65  C   -0.301461
    66  H    0.084765
    67  H    0.091806
    68  H    0.080004
    69  H    0.117081
    70  H    0.108443
    71  H    0.087230
    72  H    0.110984
    73  H    0.130452
    74  H    0.123974
    75  H    0.113554
    76  H    0.132268
    77  H    0.138196
    78  H    0.102461
    79  H    0.115099
    80  H    0.100318
    81  H    0.091911
    82  H    0.084151
    83  H    0.103228
    84  H    0.103006
    85  H    0.123655
    86  H    0.107493
    87  H    0.096648
    88  H    0.104376
    89  H    0.123044
    90  H    0.107106
    91  H    0.119943
    92  H    0.131271
    93  H    0.132437
    94  H    0.113989
    95  H    0.164225
    96  H    0.148429
    97  H    0.131666
    98  H    0.111167
    99  H    0.133892
   100  H    0.114898
   101  H    0.086558
   102  H    0.100997
   103  H    0.112844
   104  H    0.132354
   105  H    0.106139
   106  H    0.102883
   107  H    0.073992
   108  H    0.105635
   109  H    0.049471
   110  H    0.103694
   111  H    0.079150
   112  H    0.098107
   113  H    0.112989
   114  H    0.084436
   115  H    0.086476
   116  H    0.066714
   117  H    0.092329
   118  H    0.087685
   119  H    0.034820
   120  H    0.101321
   121  H    0.070914
   122  H    0.107744
   123  H    0.115322
   124  H    0.094093
   125  H    0.101177
   126  H    0.092994
   127  H    0.075129
   128  H    0.092744
   129  H    0.094390
   130  H    0.097168
   131  H    0.073353
   132  H    0.051091
   133  H    0.102981
   134  H    0.103699
   135  H    0.075777
   136  H    0.101921
   137  H    0.104621
 Sum of Mulliken charges =   0.00000

 Dipole moment (field-independent basis, Debye):
    X=              0.4698    Y=              5.3508    Z=             -0.4248  Tot=              5.3881
 Quadrupole moment (field-independent basis, Debye-Ang):
   XX=           -321.9250   YY=           -398.8629   ZZ=           -401.7150
   XY=            -30.4892   XZ=             13.1381   YZ=             -0.9204

 Normal termination of Gaussian 09 at Thu Jun 27 21:55:51 2019.
