 Gaussian 09, Revision D.01,
 Gaussian 09:  ES64L-G09RevD.01 24-Apr-2013

 -------------------------------------
 # td=(NStates=1) CAM-B3LYP/6-31G(d,p)
 -------------------------------------

 --
 TD
 --
 Symbolic Z-matrix:
 Charge =  0 Multiplicity = 1

                         Standard orientation:
 ---------------------------------------------------------------------
 Center     Atomic      Atomic             Coordinates (Angstroms)
 Number     Number       Type             X           Y           Z
 ---------------------------------------------------------------------
      1         12           0       -7.086472    0.555025    0.059704
      2          6           0       -4.936090   -1.949704    0.464438
      3          6           0       -4.773626    2.779914    1.141382
      4          6           0       -9.482673    3.087032   -0.203626
      5          6           0       -9.605777   -1.674636   -0.696494
      6          7           0       -5.222036    0.447781    0.631693
      7          6           0       -4.368586   -0.705380    0.714080
      8          6           0       -2.973873   -0.520884    1.150967
      9          6           0       -3.009391    0.999573    1.616350
     10          6           0       -4.409841    1.479206    1.135422
     11          6           0       -2.931999    1.149645    3.145232
     12          6           0       -1.992843   -0.663554   -0.014412
     13          6           0       -0.488651   -0.699129    0.400163
     14          6           0        0.611196   -0.793614   -0.652403
     15          8           0        0.293508   -0.957201   -1.824631
     16          8           0        1.853022   -0.594663   -0.189043
     17          7           0       -7.075227    2.634740    0.342433
     18          6           0       -6.005857    3.341434    0.806446
     19          6           0       -6.372183    4.702477    0.841362
     20          6           0       -7.762230    4.871570    0.447713
     21          6           0       -8.204209    3.442782    0.163006
     22          6           0       -5.482034    5.787796    1.244860
     23          6           0       -8.606189    6.063408    0.380576
     24          6           0       -8.146134    7.326768    0.124007
     25          7           0       -9.248011    0.665437   -0.378945
     26          6           0      -10.005468    1.808204   -0.517983
     27          6           0      -11.181370    1.456874   -1.080242
     28          6           0      -11.255951    0.107309   -1.123847
     29          6           0       -9.961835   -0.409622   -0.770186
     30          6           0      -12.354278    2.311409   -1.428432
     31          6           0      -12.479143   -0.811048   -1.768741
     32          6           0      -12.271079   -1.029445   -3.206497
     33          7           0       -7.219872   -1.404547   -0.166953
     34          6           0       -8.353478   -2.209086   -0.372765
     35          6           0       -7.924383   -3.561463   -0.402789
     36          6           0       -6.505265   -3.521924   -0.115501
     37          6           0       -6.185189   -2.146142    0.122649
     38          6           0       -8.727234   -4.888765   -0.742894
     39          6           0       -5.380622   -4.402428    0.194239
     40          8           0       -5.186687   -5.584461    0.235314
     41          6           0       -4.228463   -3.261674    0.427085
     42          6           0       -3.513782   -3.599037    1.811806
     43          8           0       -3.707162   -3.079629    2.859427
     44          8           0       -2.621474   -4.617336    1.577157
     45          6           0       -2.048842   -5.073346    2.855326
     46          6           0        2.904129   -0.621767   -1.228267
     47          6           0        4.237839   -0.507116   -0.648942
     48          6           0        5.114697    0.493866   -0.948358
     49          6           0        5.137711    1.367426   -2.150160
     50          6           0        6.444991    0.507923   -0.155830
     51          6           0        7.630837   -0.052961   -1.001762
     52          6           0        8.926908    0.038784   -0.194134
     53          6           0       10.236562   -0.343021   -0.899742
     54          6           0       10.142343   -1.829156   -1.521774
     55          6           0       11.518455   -0.205454   -0.029682
     56          6           0       12.842659   -0.494011   -0.764226
     57          6           0       14.025673   -0.201393    0.242369
     58          6           0       15.308665   -0.091994   -0.457436
     59          6           0       15.706653   -1.551797   -0.962411
     60          6           0       16.393574    0.396848    0.421026
     61          6           0       17.747057    0.549934   -0.033808
     62          6           0       18.740201    1.168156    0.877065
     63          6           0       20.177585    1.203806    0.226666
     64          6           0       20.169679    2.140961   -0.936123
     65          6           0       21.200835    1.598264    1.322345
     66          1           0       -3.890208    3.348013    1.531836
     67          1           0      -10.280974    3.875088   -0.290661
     68          1           0      -10.248101   -2.548652   -0.916436
     69          1           0       -2.963961   -1.224560    1.936121
     70          1           0       -2.504923    1.609775    1.318904
     71          1           0       -1.925317    1.010646    3.641249
     72          1           0       -3.122789    2.259732    3.485436
     73          1           0       -3.612301    0.321860    3.818886
     74          1           0       -2.222775   -1.630872   -0.521711
     75          1           0       -2.034828    0.168419   -0.779038
     76          1           0       -0.101566    0.222655    0.976726
     77          1           0       -0.158611   -1.456032    1.023546
     78          1           0       -4.660550    6.177310    0.552752
     79          1           0       -6.009844    6.519364    1.677634
     80          1           0       -5.056623    5.464974    2.191337
     81          1           0       -9.450941    5.915493    1.087847
     82          1           0       -8.924508    8.209450    0.209695
     83          1           0       -7.179516    7.632869   -0.328373
     84          1           0      -11.981692    3.235069   -1.993666
     85          1           0      -13.169980    1.785851   -1.663768
     86          1           0      -12.733433    2.967375   -0.654742
     87          1           0      -12.534769   -1.731897   -1.322667
     88          1           0      -13.336036   -0.192362   -1.446190
     89          1           0      -12.920182   -1.676883   -3.696087
     90          1           0      -12.391884   -0.107767   -3.973306
     91          1           0      -11.232407   -1.571796   -3.208864
     92          1           0       -9.346830   -4.680100   -1.780292
     93          1           0       -8.292905   -5.859023   -0.758674
     94          1           0       -9.636490   -5.016487   -0.180472
     95          1           0       -3.471433   -3.368220   -0.250027
     96          1           0       -1.350325   -4.603139    3.331838
     97          1           0       -2.954043   -5.238366    3.426409
     98          1           0       -1.385202   -6.072997    2.668138
     99          1           0        2.834302   -1.733396   -1.772491
    100          1           0        2.577497    0.267053   -1.811495
    101          1           0        4.352049   -1.090429    0.130142
    102          1           0        4.138195    1.494470   -2.692706
    103          1           0        5.338369    2.490403   -1.675482
    104          1           0        5.887042    0.926345   -2.927194
    105          1           0        6.812765    1.402880    0.199248
    106          1           0        6.319841   -0.020022    0.780166
    107          1           0        7.592260   -1.173747   -1.120009
    108          1           0        7.699845    0.627250   -1.604468
    109          1           0        9.246174    1.061561    0.342790
    110          1           0        8.944075   -0.702053    0.716965
    111          1           0       10.426098    0.294666   -1.644971
    112          1           0        9.325626   -1.910274   -2.112254
    113          1           0       11.104138   -2.157926   -2.021546
    114          1           0        9.922672   -2.527127   -0.521638
    115          1           0       11.450106    0.916471    0.343102
    116          1           0       11.466286   -0.851344    0.784983
    117          1           0       12.934607   -1.647521   -1.060205
    118          1           0       12.854284    0.224427   -1.621490
    119          1           0       13.803533    0.780434    0.638453
    120          1           0       13.919818   -0.866488    1.050857
    121          1           0       15.359563    0.484963   -1.369797
    122          1           0       15.590957   -2.249490   -0.079056
    123          1           0       15.146874   -1.762813   -1.882443
    124          1           0       16.792326   -1.627598   -1.301692
    125          1           0       16.036031    1.266985    0.917507
    126          1           0       16.493207   -0.141877    1.394238
    127          1           0       18.092734   -0.495246   -0.306242
    128          1           0       17.536399    1.153499   -1.053904
    129          1           0       18.340166    2.357431    0.859643
    130          1           0       18.904167    0.623705    2.005090
    131          1           0       20.438290    0.112976    0.005508
    132          1           0       19.911401    3.094129   -0.572202
    133          1           0       21.135968    2.337855   -1.497724
    134          1           0       19.651082    1.686582   -1.786107
    135          1           0       21.173219    0.938689    2.232545
    136          1           0       22.179918    1.629852    0.839834
    137          1           0       20.959994    2.471178    1.618134
 ---------------------------------------------------------------------

 SCF Done:  E(RCAM-B3LYP) =  -2932.54231426     A.U. after   17 cycles

 Excitation energies and oscillator strengths:

 Excited State   1:      Singlet-A      2.0905 eV  593.09 nm  f=0.2831  <S**2>=0.000
     240 -> 242       -0.13769
     240 -> 243        0.22278
     241 -> 242        0.64652
 This state for optimization and/or second-order correction.
 Total Energy, E(TD-HF/TD-KS) =  -2932.46549053
 Copying the excited state density for this state as the 1-particle RhoCI density.

 The electronic state is 1-A.
 Alpha  occ. eigenvalues --  -46.83157 -19.26432 -19.26206 -19.21743 -19.20274
 Alpha  occ. eigenvalues --  -19.19642 -14.41529 -14.39299 -14.38429 -14.38238
 Alpha  occ. eigenvalues --  -10.39063 -10.38627 -10.34831 -10.33097 -10.30726
 Alpha  occ. eigenvalues --  -10.30718 -10.30638 -10.30067 -10.30043 -10.29258
 Alpha  occ. eigenvalues --  -10.28918 -10.28745 -10.28507 -10.28419 -10.28203
 Alpha  occ. eigenvalues --  -10.28149 -10.28091 -10.28089 -10.28039 -10.28026
 Alpha  occ. eigenvalues --  -10.27898 -10.27604 -10.27521 -10.27411 -10.27371
 Alpha  occ. eigenvalues --  -10.27287 -10.27189 -10.26959 -10.26807 -10.26701
 Alpha  occ. eigenvalues --  -10.26472 -10.26467 -10.26293 -10.26175 -10.25752
 Alpha  occ. eigenvalues --  -10.25564 -10.25527 -10.25479 -10.25397 -10.25253
 Alpha  occ. eigenvalues --  -10.25252 -10.25238 -10.25178 -10.25056 -10.25022
 Alpha  occ. eigenvalues --  -10.24961 -10.24832 -10.24819 -10.24775 -10.24685
 Alpha  occ. eigenvalues --  -10.24591 -10.24304 -10.24271 -10.23010 -10.22880
 Alpha  occ. eigenvalues --   -3.12378  -1.87072  -1.86639  -1.86552  -1.18048
 Alpha  occ. eigenvalues --   -1.17501  -1.11461  -1.09898  -1.08038  -1.04479
 Alpha  occ. eigenvalues --   -1.03480  -1.02593  -1.01344  -0.93062  -0.91936
 Alpha  occ. eigenvalues --   -0.91688  -0.90213  -0.89604  -0.89213  -0.88732
 Alpha  occ. eigenvalues --   -0.88583  -0.88280  -0.87592  -0.86739  -0.86359
 Alpha  occ. eigenvalues --   -0.85426  -0.84632  -0.83879  -0.83462  -0.83040
 Alpha  occ. eigenvalues --   -0.81895  -0.81040  -0.80680  -0.79644  -0.78286
 Alpha  occ. eigenvalues --   -0.77566  -0.76704  -0.76631  -0.76245  -0.75769
 Alpha  occ. eigenvalues --   -0.75422  -0.74674  -0.74547  -0.73743  -0.72992
 Alpha  occ. eigenvalues --   -0.72130  -0.71086  -0.69703  -0.69157  -0.68574
 Alpha  occ. eigenvalues --   -0.67312  -0.66899  -0.66607  -0.65568  -0.64395
 Alpha  occ. eigenvalues --   -0.63982  -0.63688  -0.62770  -0.62085  -0.61893
 Alpha  occ. eigenvalues --   -0.61704  -0.61273  -0.60565  -0.60046  -0.59096
 Alpha  occ. eigenvalues --   -0.58429  -0.58188  -0.57506  -0.56887  -0.56575
 Alpha  occ. eigenvalues --   -0.56520  -0.56400  -0.55776  -0.55201  -0.54727
 Alpha  occ. eigenvalues --   -0.54432  -0.54115  -0.54013  -0.53899  -0.53738
 Alpha  occ. eigenvalues --   -0.53120  -0.52945  -0.52490  -0.52419  -0.51693
 Alpha  occ. eigenvalues --   -0.51525  -0.51146  -0.51083  -0.50853  -0.50690
 Alpha  occ. eigenvalues --   -0.50504  -0.50320  -0.50137  -0.49966  -0.49682
 Alpha  occ. eigenvalues --   -0.49486  -0.49191  -0.49124  -0.48715  -0.48658
 Alpha  occ. eigenvalues --   -0.48547  -0.48285  -0.48209  -0.47764  -0.47687
 Alpha  occ. eigenvalues --   -0.46887  -0.46831  -0.46545  -0.46480  -0.46001
 Alpha  occ. eigenvalues --   -0.45890  -0.45695  -0.45391  -0.45157  -0.44955
 Alpha  occ. eigenvalues --   -0.44923  -0.44704  -0.44239  -0.44144  -0.43913
 Alpha  occ. eigenvalues --   -0.43752  -0.43588  -0.43480  -0.43390  -0.43112
 Alpha  occ. eigenvalues --   -0.42853  -0.42555  -0.42434  -0.41934  -0.41780
 Alpha  occ. eigenvalues --   -0.41639  -0.41536  -0.41334  -0.41225  -0.41127
 Alpha  occ. eigenvalues --   -0.41020  -0.40992  -0.40673  -0.40596  -0.40270
 Alpha  occ. eigenvalues --   -0.40234  -0.39947  -0.39799  -0.39467  -0.39394
 Alpha  occ. eigenvalues --   -0.39334  -0.39043  -0.38661  -0.38579  -0.38026
 Alpha  occ. eigenvalues --   -0.37562  -0.37283  -0.37039  -0.36645  -0.36485
 Alpha  occ. eigenvalues --   -0.36051  -0.35921  -0.35908  -0.35825  -0.35736
 Alpha  occ. eigenvalues --   -0.35603  -0.34224  -0.34123  -0.34062  -0.33845
 Alpha  occ. eigenvalues --   -0.32524  -0.32402  -0.32249  -0.31350  -0.29584
 Alpha  occ. eigenvalues --   -0.29346  -0.28699  -0.27636  -0.26967  -0.23629
 Alpha  occ. eigenvalues --   -0.21586
 Alpha virt. eigenvalues --   -0.06734  -0.02977   0.01683   0.03416   0.04517
 Alpha virt. eigenvalues --    0.06202   0.06590   0.07069   0.07625   0.07903
 Alpha virt. eigenvalues --    0.08443   0.10985   0.11351   0.12029   0.12129

 Mulliken charges:
               1
     1  Mg   0.815873
     2  C    0.093104
     3  C   -0.219366
     4  C   -0.176998
     5  C   -0.149081
     6  N   -0.680842
     7  C    0.286832
     8  C   -0.145663
     9  C   -0.025966
    10  C    0.331519
    11  C   -0.319212
    12  C   -0.167433
    13  C   -0.258070
    14  C    0.589285
    15  O   -0.487399
    16  O   -0.489252
    17  N   -0.727482
    18  C    0.385911
    19  C   -0.022576
    20  C    0.000545
    21  C    0.315696
    22  C   -0.374610
    23  C   -0.103708
    24  C   -0.230204
    25  N   -0.699974
    26  C    0.306956
    27  C    0.044102
    28  C   -0.050166
    29  C    0.337356
    30  C   -0.370260
    31  C   -0.204968
    32  C   -0.287289
    33  N   -0.776155
    34  C    0.252650
    35  C    0.022421
    36  C   -0.053333
    37  C    0.355072
    38  C   -0.372081
    39  C    0.386924
    40  O   -0.447031
    41  C   -0.350950
    42  C    0.604190
    43  O   -0.456549
    44  O   -0.464816
    45  C   -0.080615
    46  C    0.026451
    47  C   -0.097587
    48  C    0.105060
    49  C   -0.357091
    50  C   -0.244148
    51  C   -0.133493
    52  C   -0.198369
    53  C   -0.057040
    54  C   -0.312289
    55  C   -0.169325
    56  C   -0.188228
    57  C   -0.167398
    58  C   -0.050181
    59  C   -0.319621
    60  C   -0.163752
    61  C   -0.149103
    62  C   -0.151817
    63  C   -0.058261
    64  C   -0.308961
    65  C   -0.302526
    66  H    0.079440
    67  H    0.094347
    68  H    0.094599
    69  H    0.151671
    70  H    0.058760
    71  H    0.107826
    72  H    0.094020
    73  H    0.104238
    74  H    0.121897
    75  H    0.126003
    76  H    0.115228
    77  H    0.137824
    78  H    0.116025
    79  H    0.125245
    80  H    0.109100
    81  H    0.118183
    82  H    0.096070
    83  H    0.121619
    84  H    0.107302
    85  H    0.115589
    86  H    0.113948
    87  H    0.112176
    88  H    0.095235
    89  H    0.112348
    90  H    0.091601
    91  H    0.095348
    92  H    0.091079
    93  H    0.155624
    94  H    0.129107
    95  H    0.156982
    96  H    0.137208
    97  H    0.139893
    98  H    0.095532
    99  H    0.108567
   100  H    0.123921
   101  H    0.092353
   102  H    0.111907
   103  H    0.098903
   104  H    0.134591
   105  H    0.106243
   106  H    0.098610
   107  H    0.117387
   108  H    0.106895
   109  H    0.063633
   110  H    0.072351
   111  H    0.090123
   112  H    0.114567
   113  H    0.102643
   114  H    0.062460
   115  H    0.068164
   116  H    0.094526
   117  H    0.092764
   118  H    0.090163
   119  H    0.090626
   120  H    0.104877
   121  H    0.086098
   122  H    0.096370
   123  H    0.101816
   124  H    0.089429
   125  H    0.080925
   126  H    0.068266
   127  H    0.084976
   128  H    0.068856
   129  H    0.058847
   130  H    0.069271
   131  H    0.077964
   132  H    0.111095
   133  H    0.086276
   134  H    0.115196
   135  H    0.088787
   136  H    0.096591
   137  H    0.113190
 Sum of Mulliken charges =   0.00000

 Dipole moment (field-independent basis, Debye):
    X=              2.3371    Y=              5.2477    Z=              0.8129  Tot=              5.8018
 Quadrupole moment (field-independent basis, Debye-Ang):
   XX=           -341.6963   YY=           -390.2506   ZZ=           -399.1451
   XY=            -17.3315   XZ=              2.3266   YZ=             -2.2601

 Normal termination of Gaussian 09 at Fri Jun 28 10:53:55 2019.
