 Gaussian 09, Revision D.01,
 Gaussian 09:  ES64L-G09RevD.01 24-Apr-2013

 -------------------------------------
 # td=(NStates=1) CAM-B3LYP/6-31G(d,p)
 -------------------------------------

 --
 TD
 --
 Symbolic Z-matrix:
 Charge =  0 Multiplicity = 1

                         Standard orientation:
 ---------------------------------------------------------------------
 Center     Atomic      Atomic             Coordinates (Angstroms)
 Number     Number       Type             X           Y           Z
 ---------------------------------------------------------------------
      1         12           0       -7.109583    0.643223    0.020374
      2          6           0       -4.830141   -1.969470    0.369348
      3          6           0       -4.790044    2.828619    1.060606
      4          6           0       -9.406275    3.102495   -0.343131
      5          6           0       -9.500127   -1.706605   -1.008293
      6          7           0       -5.135709    0.413075    0.689085
      7          6           0       -4.292793   -0.703890    0.827350
      8          6           0       -2.914722   -0.428227    1.302242
      9          6           0       -3.093532    1.054329    1.686301
     10          6           0       -4.357803    1.452239    1.144167
     11          6           0       -3.040155    1.326541    3.171206
     12          6           0       -1.903639   -0.659629    0.185367
     13          6           0       -0.387933   -0.295234    0.741707
     14          6           0        0.482942   -0.685997   -0.428838
     15          8           0        0.268606   -1.186740   -1.522567
     16          8           0        1.812704   -0.437656   -0.066449
     17          7           0       -7.090710    2.668839    0.331513
     18          6           0       -6.027445    3.363156    0.807026
     19          6           0       -6.436419    4.753490    0.837009
     20          6           0       -7.749872    4.819272    0.424972
     21          6           0       -8.168061    3.485445    0.136496
     22          6           0       -5.491461    5.806127    1.184797
     23          6           0       -8.604314    5.960177    0.363028
     24          6           0       -8.206139    7.297107    0.123757
     25          7           0       -9.008411    0.633825   -0.560247
     26          6           0       -9.890069    1.804456   -0.626245
     27          6           0      -11.218291    1.455986   -1.046145
     28          6           0      -11.195024    0.110805   -1.251116
     29          6           0       -9.897371   -0.428523   -0.872773
     30          6           0      -12.325849    2.432373   -1.194963
     31          6           0      -12.395338   -0.769302   -1.619690
     32          6           0      -12.521010   -1.155327   -3.058679
     33          7           0       -7.234888   -1.466545   -0.232877
     34          6           0       -8.201714   -2.186018   -0.581345
     35          6           0       -7.809070   -3.627416   -0.595601
     36          6           0       -6.522093   -3.571851   -0.215903
     37          6           0       -6.165010   -2.190473    0.015137
     38          6           0       -8.668226   -4.845523   -0.839865
     39          6           0       -5.281954   -4.471656    0.001688
     40          8           0       -5.128293   -5.606842   -0.103793
     41          6           0       -4.090130   -3.400209    0.446703
     42          6           0       -3.688144   -3.740319    1.912770
     43          8           0       -3.824767   -3.117463    2.869228
     44          8           0       -2.809757   -4.802502    1.784604
     45          6           0       -2.221548   -5.215100    2.965137
     46          6           0        2.793837   -0.730160   -1.082597
     47          6           0        4.094079   -0.293432   -0.493140
     48          6           0        5.041923    0.481450   -0.958786
     49          6           0        4.940539    1.267320   -2.190275
     50          6           0        6.425968    0.579494   -0.215897
     51          6           0        7.613862    0.057218   -0.918738
     52          6           0        8.932171   -0.034105   -0.129427
     53          6           0       10.243577   -0.394322   -0.915376
     54          6           0       10.172369   -1.833405   -1.446721
     55          6           0       11.448401   -0.082787    0.016692
     56          6           0       12.801872   -0.302939   -0.696195
     57          6           0       13.934067   -0.127521    0.325250
     58          6           0       15.345585   -0.132989   -0.427011
     59          6           0       15.552287   -1.566337   -0.984001
     60          6           0       16.419636    0.383640    0.507031
     61          6           0       17.862551    0.413199   -0.194429
     62          6           0       18.863194    1.082947    0.806851
     63          6           0       20.238242    1.125709    0.177962
     64          6           0       20.363839    2.050468   -1.135359
     65          6           0       21.353425    1.605062    1.187026
     66          1           0       -4.003398    3.567479    1.396722
     67          1           0       -9.986255    4.018796   -0.315439
     68          1           0      -10.132914   -2.465820   -1.222622
     69          1           0       -2.652241   -1.076098    2.173824
     70          1           0       -2.361231    1.700403    1.055965
     71          1           0       -1.999821    0.978033    3.551547
     72          1           0       -3.197167    2.471602    3.572891
     73          1           0       -3.764058    0.500231    3.548059
     74          1           0       -1.895655   -1.633090   -0.010181
     75          1           0       -2.279583   -0.024450   -0.665802
     76          1           0       -0.144964    0.781051    0.952574
     77          1           0       -0.041405   -0.947075    1.417393
     78          1           0       -4.930582    6.175063    0.266031
     79          1           0       -5.979545    6.514151    1.694185
     80          1           0       -4.682722    5.560377    1.908436
     81          1           0       -9.778791    5.811141    0.580464
     82          1           0       -8.903661    8.090720    0.121372
     83          1           0       -7.260736    7.501753    0.053233
     84          1           0      -12.087580    3.266313   -1.808588
     85          1           0      -13.217177    1.886026   -1.436275
     86          1           0      -12.603057    3.151945   -0.403677
     87          1           0      -12.228573   -1.726938   -1.110578
     88          1           0      -13.226543   -0.365985   -1.460349
     89          1           0      -13.421242   -1.625945   -3.484893
     90          1           0      -12.304424   -0.242226   -3.725607
     91          1           0      -11.702911   -1.978521   -3.476166
     92          1           0       -8.556608   -4.999629   -1.939869
     93          1           0       -8.114729   -5.838474   -0.296942
     94          1           0       -9.875275   -4.812982   -0.573431
     95          1           0       -3.444703   -3.533973   -0.425268
     96          1           0       -1.939073   -4.329192    3.651625
     97          1           0       -3.049601   -5.676498    3.692007
     98          1           0       -1.381293   -5.883711    2.884971
     99          1           0        2.622020   -1.656611   -1.396983
    100          1           0        2.429378   -0.184108   -1.882454
    101          1           0        4.475219   -0.649592    0.525792
    102          1           0        3.908770    1.843572   -2.472613
    103          1           0        5.695286    2.238120   -2.174176
    104          1           0        5.262398    0.737842   -3.153309
    105          1           0        6.604716    1.683601    0.199231
    106          1           0        6.393467   -0.024497    0.617161
    107          1           0        7.361417   -0.927196   -1.192676
    108          1           0        7.846470    0.740598   -1.878458
    109          1           0        9.209654    1.039351    0.093645
    110          1           0        8.752149   -0.723527    0.744897
    111          1           0       10.297613    0.491244   -1.673346
    112          1           0        9.354073   -1.861395   -2.433291
    113          1           0       11.078944   -2.368339   -1.867895
    114          1           0        9.587637   -2.744525   -0.664660
    115          1           0       11.168023    0.950806    0.106399
    116          1           0       11.424083   -0.587173    0.936410
    117          1           0       12.657822   -1.307688   -1.022893
    118          1           0       12.726578    0.446186   -1.563874
    119          1           0       13.885807    0.829138    1.053827
    120          1           0       13.824429   -1.010896    1.019845
    121          1           0       15.375929    0.429459   -1.291903
    122          1           0       15.893921   -2.331802   -0.164398
    123          1           0       14.584541   -1.912508   -1.475087
    124          1           0       16.558946   -1.648088   -1.497231
    125          1           0       16.125432    1.405452    0.860397
    126          1           0       16.442352   -0.419336    1.480823
    127          1           0       17.985833   -0.564068   -0.439647
    128          1           0       17.763850    1.050550   -1.165825
    129          1           0       18.573647    2.062410    1.097143
    130          1           0       18.937442    0.466282    1.675109
    131          1           0       20.551713    0.085869   -0.153741
    132          1           0       20.105074    3.190239   -0.909404
    133          1           0       21.460226    1.998581   -1.596790
    134          1           0       19.608107    1.646731   -1.902612
    135          1           0       21.236837    0.853787    2.022913
    136          1           0       22.466610    1.507845    0.886338
    137          1           0       21.170306    2.853619    1.420216
 ---------------------------------------------------------------------

 SCF Done:  E(RCAM-B3LYP) =  -2932.62895119     A.U. after   18 cycles

 Excitation energies and oscillator strengths:

 Excited State   1:      Singlet-A      1.9400 eV  639.10 nm  f=0.2662  <S**2>=0.000
     240 -> 243        0.23545
     241 -> 242        0.66535
 This state for optimization and/or second-order correction.
 Total Energy, E(TD-HF/TD-KS) =  -2932.55765794
 Copying the excited state density for this state as the 1-particle RhoCI density.

 The electronic state is 1-A.
 Alpha  occ. eigenvalues --  -46.84086 -19.26098 -19.24502 -19.23262 -19.22206
 Alpha  occ. eigenvalues --  -19.21735 -14.42825 -14.39138 -14.38724 -14.38264
 Alpha  occ. eigenvalues --  -10.40302 -10.39462 -10.36055 -10.31745 -10.31070
 Alpha  occ. eigenvalues --  -10.30988 -10.29938 -10.29478 -10.29203 -10.29077
 Alpha  occ. eigenvalues --  -10.28842 -10.28783 -10.28777 -10.28725 -10.28597
 Alpha  occ. eigenvalues --  -10.28394 -10.28325 -10.28250 -10.28119 -10.28024
 Alpha  occ. eigenvalues --  -10.27904 -10.27897 -10.27870 -10.27645 -10.27612
 Alpha  occ. eigenvalues --  -10.27268 -10.27101 -10.26954 -10.26734 -10.26720
 Alpha  occ. eigenvalues --  -10.26712 -10.26549 -10.26410 -10.26352 -10.26346
 Alpha  occ. eigenvalues --  -10.26337 -10.26239 -10.26235 -10.26213 -10.26147
 Alpha  occ. eigenvalues --  -10.26125 -10.26015 -10.25778 -10.25689 -10.25639
 Alpha  occ. eigenvalues --  -10.25584 -10.25572 -10.25435 -10.25179 -10.25172
 Alpha  occ. eigenvalues --  -10.25129 -10.24958 -10.24818 -10.24783 -10.24130
 Alpha  occ. eigenvalues --   -3.13129  -1.87835  -1.87381  -1.87293  -1.20704
 Alpha  occ. eigenvalues --   -1.16920  -1.15960  -1.12589  -1.08330  -1.06813
 Alpha  occ. eigenvalues --   -1.04408  -1.03266  -1.00043  -0.91485  -0.91100
 Alpha  occ. eigenvalues --   -0.90914  -0.90234  -0.89186  -0.88953  -0.88802
 Alpha  occ. eigenvalues --   -0.88231  -0.87881  -0.87502  -0.86787  -0.86523
 Alpha  occ. eigenvalues --   -0.85409  -0.84402  -0.83585  -0.82499  -0.82369
 Alpha  occ. eigenvalues --   -0.81429  -0.80709  -0.79914  -0.79207  -0.78142
 Alpha  occ. eigenvalues --   -0.77466  -0.77265  -0.75810  -0.75096  -0.74777
 Alpha  occ. eigenvalues --   -0.74074  -0.74065  -0.73461  -0.73136  -0.72187
 Alpha  occ. eigenvalues --   -0.71836  -0.71009  -0.69451  -0.69213  -0.68222
 Alpha  occ. eigenvalues --   -0.67395  -0.66295  -0.65384  -0.64673  -0.64145
 Alpha  occ. eigenvalues --   -0.63946  -0.63382  -0.62713  -0.62577  -0.61657
 Alpha  occ. eigenvalues --   -0.61126  -0.60903  -0.60328  -0.59770  -0.59205
 Alpha  occ. eigenvalues --   -0.59049  -0.58797  -0.57993  -0.57417  -0.57045
 Alpha  occ. eigenvalues --   -0.56523  -0.55984  -0.55594  -0.55456  -0.55039
 Alpha  occ. eigenvalues --   -0.54886  -0.54364  -0.54019  -0.53747  -0.53393
 Alpha  occ. eigenvalues --   -0.53290  -0.53100  -0.52736  -0.52076  -0.51868
 Alpha  occ. eigenvalues --   -0.51660  -0.51439  -0.50924  -0.50740  -0.50576
 Alpha  occ. eigenvalues --   -0.50280  -0.49864  -0.49855  -0.49691  -0.49501
 Alpha  occ. eigenvalues --   -0.49374  -0.49043  -0.48772  -0.48521  -0.48085
 Alpha  occ. eigenvalues --   -0.48007  -0.47733  -0.47535  -0.47278  -0.47154
 Alpha  occ. eigenvalues --   -0.47044  -0.46604  -0.46368  -0.46282  -0.46059
 Alpha  occ. eigenvalues --   -0.45936  -0.45820  -0.45719  -0.45571  -0.45139
 Alpha  occ. eigenvalues --   -0.44819  -0.44675  -0.44044  -0.43985  -0.43844
 Alpha  occ. eigenvalues --   -0.43567  -0.43467  -0.43261  -0.43228  -0.43073
 Alpha  occ. eigenvalues --   -0.42799  -0.42650  -0.42369  -0.42282  -0.42176
 Alpha  occ. eigenvalues --   -0.42115  -0.41891  -0.41800  -0.41475  -0.41118
 Alpha  occ. eigenvalues --   -0.41007  -0.40833  -0.40815  -0.40396  -0.40212
 Alpha  occ. eigenvalues --   -0.40013  -0.39863  -0.39785  -0.39405  -0.39175
 Alpha  occ. eigenvalues --   -0.39115  -0.38827  -0.38675  -0.38356  -0.38074
 Alpha  occ. eigenvalues --   -0.37582  -0.37454  -0.37186  -0.36958  -0.36922
 Alpha  occ. eigenvalues --   -0.36644  -0.36193  -0.36113  -0.35505  -0.35394
 Alpha  occ. eigenvalues --   -0.35227  -0.35222  -0.35019  -0.34572  -0.34183
 Alpha  occ. eigenvalues --   -0.32946  -0.32631  -0.32100  -0.30665  -0.30363
 Alpha  occ. eigenvalues --   -0.29798  -0.29655  -0.28229  -0.26542  -0.22823
 Alpha  occ. eigenvalues --   -0.20165
 Alpha virt. eigenvalues --   -0.06026  -0.02675   0.01791   0.03632   0.05395
 Alpha virt. eigenvalues --    0.05648   0.06096   0.06345   0.06960   0.07179
 Alpha virt. eigenvalues --    0.08330   0.10390   0.10614   0.11638   0.11812

 Mulliken charges:
               1
     1  Mg   0.819527
     2  C   -0.025870
     3  C   -0.221520
     4  C   -0.161972
     5  C   -0.136402
     6  N   -0.609179
     7  C    0.273483
     8  C   -0.164009
     9  C   -0.156459
    10  C    0.356939
    11  C   -0.289042
    12  C   -0.157559
    13  C   -0.262082
    14  C    0.595607
    15  O   -0.482790
    16  O   -0.518871
    17  N   -0.748166
    18  C    0.353983
    19  C    0.010176
    20  C    0.045529
    21  C    0.304994
    22  C   -0.380936
    23  C   -0.133257
    24  C   -0.229721
    25  N   -0.694383
    26  C    0.261288
    27  C    0.075484
    28  C   -0.009383
    29  C    0.309069
    30  C   -0.378083
    31  C   -0.194959
    32  C   -0.318085
    33  N   -0.667343
    34  C    0.242140
    35  C   -0.011228
    36  C   -0.020217
    37  C    0.312509
    38  C   -0.370111
    39  C    0.359066
    40  O   -0.380450
    41  C   -0.325315
    42  C    0.626272
    43  O   -0.406589
    44  O   -0.440105
    45  C   -0.091105
    46  C    0.040650
    47  C   -0.126679
    48  C    0.141073
    49  C   -0.373231
    50  C   -0.210260
    51  C   -0.162519
    52  C   -0.163256
    53  C   -0.068112
    54  C   -0.288858
    55  C   -0.168784
    56  C   -0.179340
    57  C   -0.172147
    58  C   -0.037399
    59  C   -0.321905
    60  C   -0.172377
    61  C   -0.185984
    62  C   -0.151020
    63  C   -0.060679
    64  C   -0.296581
    65  C   -0.285635
    66  H    0.072849
    67  H    0.067296
    68  H    0.072657
    69  H    0.127454
    70  H    0.102023
    71  H    0.099234
    72  H    0.107048
    73  H    0.123871
    74  H    0.134284
    75  H    0.122763
    76  H    0.151581
    77  H    0.158288
    78  H    0.121499
    79  H    0.128851
    80  H    0.106002
    81  H    0.090973
    82  H    0.104490
    83  H    0.097823
    84  H    0.131202
    85  H    0.113695
    86  H    0.119080
    87  H    0.109590
    88  H    0.105543
    89  H    0.110027
    90  H    0.100645
    91  H    0.073262
    92  H    0.136573
    93  H    0.119631
    94  H    0.104832
    95  H    0.172143
    96  H    0.108098
    97  H    0.097097
    98  H    0.129633
    99  H    0.135477
   100  H    0.121550
   101  H    0.081398
   102  H    0.102716
   103  H    0.086557
   104  H    0.123013
   105  H    0.079126
   106  H    0.097108
   107  H    0.106243
   108  H    0.065566
   109  H    0.081278
   110  H    0.087809
   111  H    0.083851
   112  H    0.072269
   113  H    0.110211
   114  H    0.061010
   115  H    0.089398
   116  H    0.094873
   117  H    0.108227
   118  H    0.085225
   119  H    0.074242
   120  H    0.094509
   121  H    0.099462
   122  H    0.079147
   123  H    0.107158
   124  H    0.095111
   125  H    0.088631
   126  H    0.052311
   127  H    0.108457
   128  H    0.085844
   129  H    0.101344
   130  H    0.099965
   131  H    0.082065
   132  H    0.083872
   133  H    0.090121
   134  H    0.092278
   135  H    0.092893
   136  H    0.095556
   137  H    0.066258
 Sum of Mulliken charges =   0.00000

 Dipole moment (field-independent basis, Debye):
    X=              1.5566    Y=              3.2476    Z=              1.2070  Tot=              3.7982
 Quadrupole moment (field-independent basis, Debye-Ang):
   XX=           -365.5326   YY=           -394.5247   ZZ=           -400.8476
   XY=            -21.8292   XZ=              3.7905   YZ=             -3.1108

 Normal termination of Gaussian 09 at Sat Jun 29 07:19:09 2019.
