 Gaussian 09, Revision D.01,
 Gaussian 09:  ES64L-G09RevD.01 24-Apr-2013

 -------------------------------------
 # td=(NStates=1) CAM-B3LYP/6-31G(d,p)
 -------------------------------------

 --
 TD
 --
 Symbolic Z-matrix:
 Charge =  0 Multiplicity = 1

                         Standard orientation:
 ---------------------------------------------------------------------
 Center     Atomic      Atomic             Coordinates (Angstroms)
 Number     Number       Type             X           Y           Z
 ---------------------------------------------------------------------
      1         12           0       -7.193536    0.659274    0.212817
      2          6           0       -4.706833   -1.905759    0.522199
      3          6           0       -4.820445    2.883312    1.193952
      4          6           0       -9.451179    3.097660   -0.273002
      5          6           0       -9.453971   -1.793661   -0.843266
      6          7           0       -5.020571    0.449166    0.699953
      7          6           0       -4.309501   -0.706466    0.790952
      8          6           0       -2.871977   -0.412403    1.208463
      9          6           0       -2.978284    1.147196    1.666707
     10          6           0       -4.323672    1.524625    1.196224
     11          6           0       -2.933107    1.224922    3.261778
     12          6           0       -1.812470   -0.518666    0.053017
     13          6           0       -0.403898   -0.424276    0.583760
     14          6           0        0.533615   -0.641338   -0.705767
     15          8           0        0.213131   -0.926333   -1.749806
     16          8           0        1.746829   -0.506893   -0.267224
     17          7           0       -7.189566    2.549095    0.442530
     18          6           0       -6.094978    3.293172    0.846742
     19          6           0       -6.482892    4.706035    0.825429
     20          6           0       -7.793917    4.754714    0.510586
     21          6           0       -8.228903    3.421976    0.180591
     22          6           0       -5.652776    5.861196    1.352266
     23          6           0       -8.560292    5.960302    0.249419
     24          6           0       -8.014726    7.198322    0.069942
     25          7           0       -9.116260    0.752156   -0.527474
     26          6           0       -9.910503    1.812735   -0.668881
     27          6           0      -11.237009    1.458806   -1.015426
     28          6           0      -11.285940    0.045074   -1.152154
     29          6           0       -9.870662   -0.414880   -0.792085
     30          6           0      -12.342518    2.468427   -1.426838
     31          6           0      -12.320551   -0.818197   -1.681354
     32          6           0      -12.348420   -0.947219   -3.201539
     33          7           0       -7.182262   -1.373941   -0.199248
     34          6           0       -8.130895   -2.170477   -0.536971
     35          6           0       -7.741607   -3.591942   -0.497627
     36          6           0       -6.405787   -3.513768   -0.122357
     37          6           0       -6.115938   -2.120443    0.073205
     38          6           0       -8.587161   -4.915563   -0.767688
     39          6           0       -5.262692   -4.356962    0.209040
     40          8           0       -5.158181   -5.536285    0.142277
     41          6           0       -4.055171   -3.295445    0.572326
     42          6           0       -3.508668   -3.640975    1.908180
     43          8           0       -3.728201   -3.144867    2.899820
     44          8           0       -2.681590   -4.684850    1.697136
     45          6           0       -2.319930   -5.313540    3.042918
     46          6           0        2.823219   -0.570794   -1.320720
     47          6           0        4.157109   -0.395146   -0.667497
     48          6           0        5.213279    0.345323   -1.130603
     49          6           0        5.097745    1.168246   -2.364947
     50          6           0        6.432141    0.376238   -0.429436
     51          6           0        7.636728   -0.270783   -1.072618
     52          6           0        8.844790   -0.188796   -0.187098
     53          6           0       10.166456   -0.583218   -0.962432
     54          6           0        9.978957   -1.967658   -1.485026
     55          6           0       11.417656   -0.311250   -0.112167
     56          6           0       12.755863   -0.513915   -0.805959
     57          6           0       13.887944   -0.226297    0.102777
     58          6           0       15.281532   -0.192844   -0.421420
     59          6           0       15.703972   -1.569134   -0.890933
     60          6           0       16.374256    0.495274    0.442727
     61          6           0       17.784616    0.482061   -0.140147
     62          6           0       18.715685    1.204890    0.851240
     63          6           0       20.180140    1.397299    0.291504
     64          6           0       20.154087    2.365912   -0.845309
     65          6           0       21.101445    1.944549    1.544019
     66          1           0       -4.241432    3.565939    1.748873
     67          1           0      -10.096728    4.069474   -0.475038
     68          1           0      -10.171936   -2.524807   -1.135768
     69          1           0       -2.635695   -1.122951    2.031135
     70          1           0       -2.253416    1.901811    1.358482
     71          1           0       -1.929978    0.925016    3.529546
     72          1           0       -3.248622    2.362100    3.464875
     73          1           0       -3.749478    0.596962    3.593372
     74          1           0       -1.879779   -1.422981   -0.253004
     75          1           0       -1.883466    0.175384   -0.825349
     76          1           0       -0.183712    0.428949    1.009250
     77          1           0       -0.174263   -1.351512    1.140879
     78          1           0       -5.020800    6.340341    0.596870
     79          1           0       -6.290510    6.625188    2.095202
     80          1           0       -5.048903    5.345269    2.088546
     81          1           0       -9.729579    5.804577   -0.032853
     82          1           0       -8.939051    7.720764   -0.120240
     83          1           0       -6.899474    7.288345    0.120379
     84          1           0      -11.719490    3.086903   -2.037266
     85          1           0      -13.068181    1.833260   -1.799633
     86          1           0      -12.572286    3.049233   -0.630398
     87          1           0      -12.293386   -1.860808   -1.276535
     88          1           0      -13.393095   -0.579590   -1.291398
     89          1           0      -13.131250   -1.568164   -3.392858
     90          1           0      -12.356916    0.090076   -3.714466
     91          1           0      -11.386565   -1.217590   -3.392168
     92          1           0       -8.515233   -5.288327   -1.918889
     93          1           0       -8.000477   -5.839387   -0.504208
     94          1           0       -9.689246   -4.935709   -0.469248
     95          1           0       -3.305364   -3.379634   -0.089580
     96          1           0       -1.561242   -4.740316    3.448719
     97          1           0       -3.206180   -5.328695    3.735245
     98          1           0       -1.906980   -6.444657    2.797817
     99          1           0        2.661497   -1.563379   -1.835237
    100          1           0        2.551215    0.228373   -2.066547
    101          1           0        4.171440   -1.056696    0.307692
    102          1           0        4.346437    1.228537   -2.631006
    103          1           0        5.267427    2.194608   -2.183286
    104          1           0        5.704576    0.835909   -3.065827
    105          1           0        6.847557    1.497243   -0.165659
    106          1           0        6.211804   -0.213588    0.612601
    107          1           0        7.296099   -1.389989   -1.230270
    108          1           0        7.726120    0.206185   -2.011674
    109          1           0        9.041799    0.976836    0.077462
    110          1           0        8.939760   -0.747297    0.700146
    111          1           0       10.088976    0.050535   -1.874122
    112          1           0        9.172094   -2.138892   -2.215042
    113          1           0       10.852655   -2.466767   -1.874395
    114          1           0        9.809875   -2.723092   -0.588184
    115          1           0       11.424669    0.750178    0.316608
    116          1           0       11.407323   -0.998875    0.775109
    117          1           0       12.777729   -1.490869   -1.090038
    118          1           0       12.762198    0.019688   -1.664605
    119          1           0       13.642178    0.938186    0.485004
    120          1           0       14.019659   -0.951030    0.987451
    121          1           0       15.317009    0.421770   -1.322143
    122          1           0       15.568638   -2.178347   -0.174910
    123          1           0       15.110520   -1.966387   -1.723814
    124          1           0       16.737506   -1.626393   -1.392824
    125          1           0       15.995019    1.515097    0.729942
    126          1           0       16.389398   -0.338027    1.335723
    127          1           0       17.973924   -0.732134   -0.166456
    128          1           0       17.964602    0.620789   -1.128308
    129          1           0       18.214153    2.211266    0.966968
    130          1           0       18.565513    0.693738    1.845188
    131          1           0       20.848840    0.406334   -0.052183
    132          1           0       19.618464    3.438232   -0.537674
    133          1           0       21.221409    2.505215   -1.025453
    134          1           0       19.810951    1.870024   -1.633193
    135          1           0       21.021871    1.165709    2.435968
    136          1           0       22.226720    2.084880    1.406557
    137          1           0       20.498461    2.886481    1.856180
 ---------------------------------------------------------------------

 SCF Done:  E(RCAM-B3LYP) =  -2932.54782572     A.U. after   17 cycles

 Excitation energies and oscillator strengths:

 Excited State   1:      Singlet-A      2.1558 eV  575.11 nm  f=0.2324  <S**2>=0.000
     240 -> 243       -0.23829
     241 -> 242        0.65079
 This state for optimization and/or second-order correction.
 Total Energy, E(TD-HF/TD-KS) =  -2932.46860030
 Copying the excited state density for this state as the 1-particle RhoCI density.

 The electronic state is 1-A.
 Alpha  occ. eigenvalues --  -46.83896 -19.25424 -19.25288 -19.21048 -19.20758
 Alpha  occ. eigenvalues --  -19.20677 -14.41061 -14.39536 -14.39089 -14.38921
 Alpha  occ. eigenvalues --  -10.37625 -10.37508 -10.35013 -10.32804 -10.32198
 Alpha  occ. eigenvalues --  -10.31563 -10.30494 -10.29020 -10.28770 -10.28734
 Alpha  occ. eigenvalues --  -10.28497 -10.28405 -10.28137 -10.28110 -10.28074
 Alpha  occ. eigenvalues --  -10.28020 -10.28017 -10.27998 -10.27653 -10.27558
 Alpha  occ. eigenvalues --  -10.27437 -10.27426 -10.27249 -10.27113 -10.26885
 Alpha  occ. eigenvalues --  -10.26762 -10.26698 -10.26583 -10.26532 -10.26483
 Alpha  occ. eigenvalues --  -10.26481 -10.26452 -10.26387 -10.26317 -10.26271
 Alpha  occ. eigenvalues --  -10.26161 -10.26098 -10.26030 -10.26005 -10.25946
 Alpha  occ. eigenvalues --  -10.25847 -10.25569 -10.25438 -10.25281 -10.25263
 Alpha  occ. eigenvalues --  -10.25026 -10.24919 -10.24639 -10.24331 -10.24253
 Alpha  occ. eigenvalues --  -10.24088 -10.24010 -10.23290 -10.23152 -10.21982
 Alpha  occ. eigenvalues --   -3.13066  -1.87754  -1.87295  -1.87268  -1.20698
 Alpha  occ. eigenvalues --   -1.19997  -1.12690  -1.11626  -1.10336  -1.06054
 Alpha  occ. eigenvalues --   -1.03612  -1.02847  -1.01614  -0.93029  -0.91879
 Alpha  occ. eigenvalues --   -0.91468  -0.89889  -0.89467  -0.89068  -0.88960
 Alpha  occ. eigenvalues --   -0.88223  -0.88092  -0.87048  -0.86205  -0.86003
 Alpha  occ. eigenvalues --   -0.85205  -0.84164  -0.83771  -0.83549  -0.82873
 Alpha  occ. eigenvalues --   -0.82680  -0.81622  -0.80781  -0.80037  -0.78436
 Alpha  occ. eigenvalues --   -0.77821  -0.76954  -0.76546  -0.75778  -0.75617
 Alpha  occ. eigenvalues --   -0.75093  -0.74672  -0.74087  -0.72875  -0.71951
 Alpha  occ. eigenvalues --   -0.71759  -0.70219  -0.69604  -0.68806  -0.68214
 Alpha  occ. eigenvalues --   -0.66689  -0.66301  -0.65170  -0.64752  -0.64204
 Alpha  occ. eigenvalues --   -0.64070  -0.63496  -0.62562  -0.62411  -0.61207
 Alpha  occ. eigenvalues --   -0.60711  -0.60627  -0.60349  -0.59343  -0.59032
 Alpha  occ. eigenvalues --   -0.58414  -0.58144  -0.57894  -0.57649  -0.57382
 Alpha  occ. eigenvalues --   -0.56299  -0.55962  -0.55814  -0.55420  -0.55111
 Alpha  occ. eigenvalues --   -0.55023  -0.54621  -0.53982  -0.53864  -0.53410
 Alpha  occ. eigenvalues --   -0.53065  -0.52752  -0.52678  -0.52585  -0.52338
 Alpha  occ. eigenvalues --   -0.51626  -0.51305  -0.51136  -0.50973  -0.50869
 Alpha  occ. eigenvalues --   -0.50783  -0.50547  -0.50079  -0.49700  -0.49511
 Alpha  occ. eigenvalues --   -0.49214  -0.49103  -0.48944  -0.48705  -0.48429
 Alpha  occ. eigenvalues --   -0.48352  -0.47872  -0.47762  -0.47652  -0.47478
 Alpha  occ. eigenvalues --   -0.47202  -0.46908  -0.46866  -0.46753  -0.46620
 Alpha  occ. eigenvalues --   -0.46558  -0.46147  -0.46012  -0.45455  -0.45252
 Alpha  occ. eigenvalues --   -0.45091  -0.44777  -0.44655  -0.44507  -0.44147
 Alpha  occ. eigenvalues --   -0.43993  -0.43882  -0.43777  -0.43662  -0.43231
 Alpha  occ. eigenvalues --   -0.43087  -0.42731  -0.42662  -0.42549  -0.42369
 Alpha  occ. eigenvalues --   -0.42235  -0.41988  -0.41702  -0.41599  -0.41336
 Alpha  occ. eigenvalues --   -0.41062  -0.40991  -0.40793  -0.40427  -0.40348
 Alpha  occ. eigenvalues --   -0.40120  -0.39915  -0.39739  -0.39342  -0.39175
 Alpha  occ. eigenvalues --   -0.38916  -0.38756  -0.38538  -0.37844  -0.37535
 Alpha  occ. eigenvalues --   -0.37509  -0.37332  -0.36954  -0.36844  -0.36548
 Alpha  occ. eigenvalues --   -0.36437  -0.36433  -0.36138  -0.35571  -0.35484
 Alpha  occ. eigenvalues --   -0.34975  -0.34910  -0.34821  -0.34325  -0.33378
 Alpha  occ. eigenvalues --   -0.33267  -0.32529  -0.31946  -0.30519  -0.29851
 Alpha  occ. eigenvalues --   -0.29415  -0.29373  -0.27837  -0.27091  -0.23154
 Alpha  occ. eigenvalues --   -0.20957
 Alpha virt. eigenvalues --   -0.05663  -0.02622   0.02359   0.04218   0.04795
 Alpha virt. eigenvalues --    0.05555   0.07183   0.07681   0.08984   0.09505
 Alpha virt. eigenvalues --    0.10545   0.10844   0.11120   0.11611   0.12238

 Mulliken charges:
               1
     1  Mg   0.843096
     2  C    0.085779
     3  C   -0.216413
     4  C   -0.194775
     5  C   -0.130702
     6  N   -0.651302
     7  C    0.300961
     8  C   -0.182498
     9  C   -0.179315
    10  C    0.357100
    11  C   -0.296164
    12  C   -0.139199
    13  C   -0.269395
    14  C    0.567194
    15  O   -0.421830
    16  O   -0.475285
    17  N   -0.792498
    18  C    0.360388
    19  C   -0.017425
    20  C    0.049503
    21  C    0.351636
    22  C   -0.393015
    23  C   -0.107861
    24  C   -0.229705
    25  N   -0.689467
    26  C    0.322161
    27  C   -0.042866
    28  C    0.039487
    29  C    0.238707
    30  C   -0.337275
    31  C   -0.285706
    32  C   -0.285183
    33  N   -0.687613
    34  C    0.258495
    35  C    0.030163
    36  C   -0.017032
    37  C    0.261584
    38  C   -0.381528
    39  C    0.368789
    40  O   -0.431970
    41  C   -0.320222
    42  C    0.615490
    43  O   -0.426161
    44  O   -0.481642
    45  C   -0.098133
    46  C   -0.008569
    47  C   -0.143022
    48  C    0.119336
    49  C   -0.267530
    50  C   -0.230982
    51  C   -0.165517
    52  C   -0.152216
    53  C   -0.066900
    54  C   -0.312259
    55  C   -0.178461
    56  C   -0.156722
    57  C   -0.152169
    58  C   -0.070259
    59  C   -0.315591
    60  C   -0.159345
    61  C   -0.170856
    62  C   -0.158253
    63  C   -0.068272
    64  C   -0.276988
    65  C   -0.302172
    66  H    0.074111
    67  H    0.074663
    68  H    0.103134
    69  H    0.117457
    70  H    0.109387
    71  H    0.121150
    72  H    0.083386
    73  H    0.133049
    74  H    0.111888
    75  H    0.113248
    76  H    0.124898
    77  H    0.127079
    78  H    0.133789
    79  H    0.116902
    80  H    0.118059
    81  H    0.079410
    82  H    0.113962
    83  H    0.123771
    84  H    0.126246
    85  H    0.121168
    86  H    0.127483
    87  H    0.099479
    88  H    0.087662
    89  H    0.114129
    90  H    0.095549
    91  H    0.123239
    92  H    0.103502
    93  H    0.149831
    94  H    0.119318
    95  H    0.162712
    96  H    0.140787
    97  H    0.144754
    98  H    0.115401
    99  H    0.135750
   100  H    0.124467
   101  H    0.096591
   102  H    0.066743
   103  H    0.109915
   104  H    0.123132
   105  H    0.074820
   106  H    0.079153
   107  H    0.091773
   108  H    0.103170
   109  H    0.064813
   110  H    0.105711
   111  H    0.078621
   112  H    0.112215
   113  H    0.102361
   114  H    0.070726
   115  H    0.083189
   116  H    0.084957
   117  H    0.104161
   118  H    0.102988
   119  H    0.049646
   120  H    0.076154
   121  H    0.074788
   122  H    0.108615
   123  H    0.096792
   124  H    0.093438
   125  H    0.087994
   126  H    0.064051
   127  H    0.066565
   128  H    0.103086
   129  H    0.088059
   130  H    0.095892
   131  H    0.063431
   132  H    0.080642
   133  H    0.102773
   134  H    0.119074
   135  H    0.084876
   136  H    0.096395
   137  H    0.090259
 Sum of Mulliken charges =   0.00000

 Dipole moment (field-independent basis, Debye):
    X=              2.8903    Y=              3.2992    Z=             -0.0295  Tot=              4.3863
 Quadrupole moment (field-independent basis, Debye-Ang):
   XX=           -359.5746   YY=           -391.1596   ZZ=           -396.3401
   XY=            -18.0077   XZ=            -10.4783   YZ=             -4.9227

 Normal termination of Gaussian 09 at Thu Jun 27 00:48:33 2019.
