 Gaussian 09, Revision D.01,
 Gaussian 09:  ES64L-G09RevD.01 24-Apr-2013

 -------------------------------------
 # td=(NStates=1) CAM-B3LYP/6-31G(d,p)
 -------------------------------------

 --
 TD
 --
 Symbolic Z-matrix:
 Charge =  0 Multiplicity = 1

                         Standard orientation:
 ---------------------------------------------------------------------
 Center     Atomic      Atomic             Coordinates (Angstroms)
 Number     Number       Type             X           Y           Z
 ---------------------------------------------------------------------
      1         12           0       -7.232292    0.593189    0.047641
      2          6           0       -4.797908   -1.972291    0.532343
      3          6           0       -4.934321    2.904074    1.218597
      4          6           0       -9.527529    3.038413   -0.327874
      5          6           0       -9.474760   -1.730979   -0.948352
      6          7           0       -5.173287    0.476308    0.892348
      7          6           0       -4.363044   -0.722645    0.884053
      8          6           0       -2.914101   -0.306862    1.325953
      9          6           0       -3.033605    1.169165    1.627443
     10          6           0       -4.422877    1.610698    1.106484
     11          6           0       -2.996325    1.526566    3.168881
     12          6           0       -1.972755   -0.597578    0.152706
     13          6           0       -0.497360   -0.433866    0.541464
     14          6           0        0.446273   -0.718025   -0.548465
     15          8           0        0.246870   -0.975365   -1.723545
     16          8           0        1.744945   -0.488369   -0.181619
     17          7           0       -7.127140    2.606136    0.392408
     18          6           0       -6.186478    3.313308    0.730476
     19          6           0       -6.477035    4.739960    0.886036
     20          6           0       -7.847392    4.790923    0.504037
     21          6           0       -8.267695    3.360508    0.099561
     22          6           0       -5.679569    5.903049    1.381753
     23          6           0       -8.710180    5.896418    0.177003
     24          6           0       -8.293534    7.182994   -0.121007
     25          7           0       -9.116904    0.631002   -0.551566
     26          6           0       -9.947825    1.715206   -0.602712
     27          6           0      -11.241745    1.368276   -1.182817
     28          6           0      -11.266855    0.046590   -1.204033
     29          6           0       -9.989434   -0.461658   -0.836570
     30          6           0      -12.273542    2.471494   -1.374707
     31          6           0      -12.499883   -0.727187   -1.620768
     32          6           0      -12.320961   -1.109313   -3.139337
     33          7           0       -7.264575   -1.404724   -0.147848
     34          6           0       -8.309343   -2.276681   -0.505509
     35          6           0       -7.799701   -3.616099   -0.524968
     36          6           0       -6.503846   -3.582120   -0.118550
     37          6           0       -6.172227   -2.207130    0.119146
     38          6           0       -8.639495   -4.832365   -0.833366
     39          6           0       -5.257529   -4.366436    0.242481
     40          8           0       -5.112270   -5.533321    0.271169
     41          6           0       -4.067937   -3.313131    0.496426
     42          6           0       -3.411847   -3.631431    1.781916
     43          8           0       -3.615259   -3.167024    2.941999
     44          8           0       -2.522179   -4.751745    1.617719
     45          6           0       -1.926614   -5.173570    2.837575
     46          6           0        2.848682   -0.603973   -1.157859
     47          6           0        4.032749   -0.360258   -0.463985
     48          6           0        5.165056    0.294515   -0.900684
     49          6           0        5.218569    1.071386   -2.226989
     50          6           0        6.511373    0.293754   -0.138186
     51          6           0        7.612137   -0.101184   -0.994551
     52          6           0        8.829088   -0.254121   -0.114529
     53          6           0       10.249987   -0.569803   -0.833631
     54          6           0       10.210655   -2.071698   -1.267704
     55          6           0       11.485812   -0.324467   -0.018672
     56          6           0       12.786294   -0.515405   -0.647075
     57          6           0       13.944221   -0.222269    0.198316
     58          6           0       15.313123   -0.121817   -0.479846
     59          6           0       15.646552   -1.499230   -1.012004
     60          6           0       16.430694    0.342597    0.360778
     61          6           0       17.899328    0.483991   -0.217545
     62          6           0       18.812350    1.276563    0.731395
     63          6           0       20.302792    1.426493    0.254450
     64          6           0       20.456256    2.065129   -1.133450
     65          6           0       21.070403    2.207480    1.342638
     66          1           0       -4.143993    3.629913    1.234840
     67          1           0      -10.149213    3.976107   -0.257229
     68          1           0      -10.163529   -2.540955   -1.145139
     69          1           0       -2.661535   -0.942706    2.114768
     70          1           0       -2.290664    1.748130    0.925635
     71          1           0       -1.965067    1.360100    3.615500
     72          1           0       -3.233507    2.626663    3.487169
     73          1           0       -3.765400    0.959651    3.664169
     74          1           0       -2.125983   -1.508285   -0.203444
     75          1           0       -2.036938    0.102601   -0.779808
     76          1           0       -0.191449    0.498163    0.835363
     77          1           0       -0.241214   -1.308807    1.344702
     78          1           0       -4.922876    6.163295    0.692482
     79          1           0       -6.253008    6.763450    1.433242
     80          1           0       -4.897360    5.563921    2.075939
     81          1           0       -9.816708    5.752228    0.436104
     82          1           0       -8.923528    8.012274   -0.473308
     83          1           0       -7.274541    7.432321   -0.021228
     84          1           0      -11.969827    2.980381   -2.087617
     85          1           0      -13.329109    2.042443   -1.632870
     86          1           0      -12.450700    3.049685   -0.499795
     87          1           0      -12.483665   -1.725039   -1.292504
     88          1           0      -13.386682   -0.093050   -1.666768
     89          1           0      -13.249488   -1.708641   -3.240095
     90          1           0      -12.498819   -0.244098   -3.753571
     91          1           0      -11.464648   -1.730254   -3.570040
     92          1           0       -8.904362   -4.586105   -1.977064
     93          1           0       -8.065981   -5.577488   -0.669996
     94          1           0       -9.461766   -4.877667   -0.310609
     95          1           0       -3.361820   -3.408895   -0.328208
     96          1           0       -1.109582   -4.504145    3.155806
     97          1           0       -2.697191   -5.037288    3.776692
     98          1           0       -1.456397   -6.237985    2.554121
     99          1           0        2.956663   -1.508869   -1.536481
    100          1           0        2.482522    0.054413   -1.940288
    101          1           0        4.157646   -0.817571    0.630848
    102          1           0        4.214038    1.100375   -2.659826
    103          1           0        5.376412    2.176931   -2.174295
    104          1           0        5.916191    0.408996   -2.897125
    105          1           0        6.771950    1.320604    0.264345
    106          1           0        6.452220   -0.311561    0.691019
    107          1           0        7.434060   -1.109348   -1.414799
    108          1           0        7.942348    0.587132   -1.848072
    109          1           0        9.076389    0.773988    0.507277
    110          1           0        8.569895   -1.278525    0.503922
    111          1           0       10.288159   -0.053284   -1.911179
    112          1           0        9.011249   -2.327531   -1.552478
    113          1           0       10.858353   -2.180627   -2.234495
    114          1           0       10.344582   -2.708333   -0.278171
    115          1           0       11.539898    0.650073    0.426275
    116          1           0       11.437767   -1.162371    0.817332
    117          1           0       12.901155   -1.478683   -1.003210
    118          1           0       12.919376    0.247434   -1.589886
    119          1           0       13.798629    0.699405    0.662788
    120          1           0       13.960009   -1.128370    0.895251
    121          1           0       15.246596    0.618149   -1.373474
    122          1           0       15.776159   -2.166014   -0.193274
    123          1           0       14.897176   -1.735829   -1.719438
    124          1           0       16.600651   -1.469071   -1.392144
    125          1           0       16.218217    1.531058    0.676930
    126          1           0       16.526169    0.032924    1.419314
    127          1           0       18.341724   -0.424328   -0.359509
    128          1           0       17.969605    1.078066   -1.376325
    129          1           0       18.527131    2.320213    0.751349
    130          1           0       18.718791    0.957842    1.810723
    131          1           0       20.827825    0.278824    0.309823
    132          1           0       20.167328    3.012696   -1.038368
    133          1           0       21.391289    2.004945   -1.492752
    134          1           0       19.892614    1.686902   -2.091168
    135          1           0       20.947310    1.716448    2.356240
    136          1           0       22.057135    2.376056    1.117992
    137          1           0       20.572425    3.188447    1.486223
 ---------------------------------------------------------------------

 SCF Done:  E(RCAM-B3LYP) =  -2932.63426169     A.U. after   17 cycles

 Excitation energies and oscillator strengths:

 Excited State   1:      Singlet-A      2.1819 eV  568.24 nm  f=0.2351  <S**2>=0.000
     240 -> 242        0.11815
     240 -> 243       -0.23392
     241 -> 242        0.64271
 This state for optimization and/or second-order correction.
 Total Energy, E(TD-HF/TD-KS) =  -2932.55407853
 Copying the excited state density for this state as the 1-particle RhoCI density.

 The electronic state is 1-A.
 Alpha  occ. eigenvalues --  -46.83981 -19.25772 -19.24237 -19.22022 -19.21560
 Alpha  occ. eigenvalues --  -19.20009 -14.40937 -14.39767 -14.39717 -14.39114
 Alpha  occ. eigenvalues --  -10.40385 -10.38474 -10.36386 -10.31898 -10.30950
 Alpha  occ. eigenvalues --  -10.30868 -10.30348 -10.30160 -10.29856 -10.29719
 Alpha  occ. eigenvalues --  -10.29420 -10.29251 -10.28651 -10.28603 -10.28523
 Alpha  occ. eigenvalues --  -10.28004 -10.27917 -10.27876 -10.27849 -10.27784
 Alpha  occ. eigenvalues --  -10.27636 -10.27592 -10.27572 -10.27570 -10.27563
 Alpha  occ. eigenvalues --  -10.27355 -10.27241 -10.27176 -10.27056 -10.26997
 Alpha  occ. eigenvalues --  -10.26746 -10.26533 -10.26439 -10.26387 -10.26358
 Alpha  occ. eigenvalues --  -10.26357 -10.26230 -10.25941 -10.25935 -10.25679
 Alpha  occ. eigenvalues --  -10.25606 -10.25452 -10.25452 -10.25307 -10.25260
 Alpha  occ. eigenvalues --  -10.25236 -10.25193 -10.25167 -10.24543 -10.24514
 Alpha  occ. eigenvalues --  -10.24388 -10.24384 -10.24106 -10.23524 -10.22264
 Alpha  occ. eigenvalues --   -3.13112  -1.87814  -1.87367  -1.87279  -1.16481
 Alpha  occ. eigenvalues --   -1.15405  -1.14085  -1.07234  -1.07142  -1.06622
 Alpha  occ. eigenvalues --   -1.03141  -1.02177  -1.00767  -0.92434  -0.91919
 Alpha  occ. eigenvalues --   -0.91339  -0.90474  -0.89858  -0.89408  -0.89238
 Alpha  occ. eigenvalues --   -0.88608  -0.88404  -0.87619  -0.87401  -0.87107
 Alpha  occ. eigenvalues --   -0.85336  -0.84555  -0.84269  -0.83608  -0.83549
 Alpha  occ. eigenvalues --   -0.81735  -0.81141  -0.80680  -0.80307  -0.79009
 Alpha  occ. eigenvalues --   -0.78416  -0.78048  -0.76965  -0.75864  -0.75587
 Alpha  occ. eigenvalues --   -0.74979  -0.74878  -0.74064  -0.72910  -0.72443
 Alpha  occ. eigenvalues --   -0.71498  -0.70577  -0.69600  -0.69182  -0.69012
 Alpha  occ. eigenvalues --   -0.67916  -0.66255  -0.65358  -0.64628  -0.63934
 Alpha  occ. eigenvalues --   -0.63816  -0.62761  -0.62308  -0.62088  -0.61824
 Alpha  occ. eigenvalues --   -0.60970  -0.60672  -0.60121  -0.60023  -0.59498
 Alpha  occ. eigenvalues --   -0.58622  -0.58118  -0.57906  -0.57502  -0.56852
 Alpha  occ. eigenvalues --   -0.56266  -0.56196  -0.55684  -0.55221  -0.54864
 Alpha  occ. eigenvalues --   -0.54229  -0.53939  -0.53751  -0.53708  -0.53154
 Alpha  occ. eigenvalues --   -0.53030  -0.52915  -0.52428  -0.52380  -0.51973
 Alpha  occ. eigenvalues --   -0.51707  -0.51614  -0.51314  -0.51264  -0.50851
 Alpha  occ. eigenvalues --   -0.50682  -0.50493  -0.50461  -0.49986  -0.49836
 Alpha  occ. eigenvalues --   -0.49630  -0.49563  -0.49137  -0.48890  -0.48850
 Alpha  occ. eigenvalues --   -0.48443  -0.48321  -0.48084  -0.47724  -0.47440
 Alpha  occ. eigenvalues --   -0.47293  -0.47086  -0.46898  -0.46409  -0.46193
 Alpha  occ. eigenvalues --   -0.46118  -0.45652  -0.45544  -0.45514  -0.45398
 Alpha  occ. eigenvalues --   -0.45123  -0.44962  -0.44776  -0.44553  -0.44337
 Alpha  occ. eigenvalues --   -0.43998  -0.43947  -0.43605  -0.43484  -0.43210
 Alpha  occ. eigenvalues --   -0.43182  -0.42953  -0.42550  -0.42528  -0.42080
 Alpha  occ. eigenvalues --   -0.42019  -0.41757  -0.41574  -0.41440  -0.41297
 Alpha  occ. eigenvalues --   -0.41268  -0.40724  -0.40666  -0.40583  -0.40435
 Alpha  occ. eigenvalues --   -0.40345  -0.40227  -0.39767  -0.39512  -0.39156
 Alpha  occ. eigenvalues --   -0.39038  -0.38644  -0.38267  -0.38034  -0.37669
 Alpha  occ. eigenvalues --   -0.37561  -0.37267  -0.36783  -0.36336  -0.36185
 Alpha  occ. eigenvalues --   -0.36136  -0.36000  -0.35469  -0.35251  -0.35215
 Alpha  occ. eigenvalues --   -0.35018  -0.34832  -0.34795  -0.34106  -0.33764
 Alpha  occ. eigenvalues --   -0.32862  -0.32458  -0.32104  -0.31368  -0.30593
 Alpha  occ. eigenvalues --   -0.29572  -0.28834  -0.28702  -0.27333  -0.23453
 Alpha  occ. eigenvalues --   -0.21479
 Alpha virt. eigenvalues --   -0.06050  -0.02781   0.01817   0.02921   0.04016
 Alpha virt. eigenvalues --    0.05700   0.06359   0.06909   0.07001   0.07255
 Alpha virt. eigenvalues --    0.08244   0.10788   0.11047   0.11284   0.11587

 Mulliken charges:
               1
     1  Mg   0.831787
     2  C    0.065148
     3  C   -0.181840
     4  C   -0.165619
     5  C   -0.176599
     6  N   -0.612593
     7  C    0.264871
     8  C   -0.133632
     9  C   -0.137697
    10  C    0.292621
    11  C   -0.307824
    12  C   -0.172407
    13  C   -0.250779
    14  C    0.591684
    15  O   -0.488335
    16  O   -0.519093
    17  N   -0.681299
    18  C    0.340738
    19  C    0.027092
    20  C   -0.026857
    21  C    0.285231
    22  C   -0.375881
    23  C   -0.097468
    24  C   -0.251146
    25  N   -0.690752
    26  C    0.283214
    27  C    0.001324
    28  C    0.040746
    29  C    0.273206
    30  C   -0.340050
    31  C   -0.235112
    32  C   -0.329537
    33  N   -0.726127
    34  C    0.271856
    35  C   -0.063577
    36  C    0.011516
    37  C    0.278023
    38  C   -0.317048
    39  C    0.383677
    40  O   -0.409839
    41  C   -0.318522
    42  C    0.636405
    43  O   -0.489293
    44  O   -0.470566
    45  C   -0.079458
    46  C    0.048138
    47  C   -0.151084
    48  C    0.089159
    49  C   -0.358206
    50  C   -0.192446
    51  C   -0.169106
    52  C   -0.169929
    53  C   -0.049651
    54  C   -0.298087
    55  C   -0.143223
    56  C   -0.166399
    57  C   -0.152169
    58  C   -0.057066
    59  C   -0.310734
    60  C   -0.177354
    61  C   -0.154536
    62  C   -0.172777
    63  C   -0.055761
    64  C   -0.306528
    65  C   -0.306580
    66  H    0.071518
    67  H    0.092230
    68  H    0.079958
    69  H    0.134262
    70  H    0.090233
    71  H    0.102585
    72  H    0.102487
    73  H    0.137338
    74  H    0.118585
    75  H    0.109868
    76  H    0.150516
    77  H    0.122266
    78  H    0.129250
    79  H    0.126680
    80  H    0.126342
    81  H    0.101252
    82  H    0.112129
    83  H    0.100863
    84  H    0.140242
    85  H    0.087203
    86  H    0.128231
    87  H    0.118782
    88  H    0.114347
    89  H    0.095205
    90  H    0.111439
    91  H    0.112529
    92  H    0.104202
    93  H    0.138602
    94  H    0.134852
    95  H    0.181057
    96  H    0.112741
    97  H    0.129702
    98  H    0.114088
    99  H    0.142843
   100  H    0.130793
   101  H    0.091571
   102  H    0.101980
   103  H    0.118384
   104  H    0.116879
   105  H    0.098579
   106  H    0.104484
   107  H    0.099188
   108  H    0.100514
   109  H    0.069499
   110  H    0.069725
   111  H    0.063455
   112  H    0.064074
   113  H    0.108216
   114  H    0.094847
   115  H    0.090066
   116  H    0.069260
   117  H    0.106294
   118  H    0.051732
   119  H    0.088144
   120  H    0.077996
   121  H    0.074735
   122  H    0.099824
   123  H    0.106376
   124  H    0.105785
   125  H    0.047032
   126  H    0.096751
   127  H    0.111289
   128  H    0.052419
   129  H    0.093367
   130  H    0.085772
   131  H    0.041500
   132  H    0.114678
   133  H    0.115285
   134  H    0.086951
   135  H    0.098987
   136  H    0.111050
   137  H    0.092243
 Sum of Mulliken charges =   0.00000

 Dipole moment (field-independent basis, Debye):
    X=              0.2307    Y=              5.4420    Z=             -0.6377  Tot=              5.4841
 Quadrupole moment (field-independent basis, Debye-Ang):
   XX=           -321.3372   YY=           -389.9293   ZZ=           -403.1972
   XY=            -20.4460   XZ=             15.6803   YZ=             -0.5141

 Normal termination of Gaussian 09 at Sun Jun 30 01:34:24 2019.
