 Gaussian 09, Revision D.01,
 Gaussian 09:  ES64L-G09RevD.01 24-Apr-2013

 -------------------------------------
 # td=(NStates=1) CAM-B3LYP/6-31G(d,p)
 -------------------------------------

 --
 TD
 --
 Symbolic Z-matrix:
 Charge =  0 Multiplicity = 1

                         Standard orientation:
 ---------------------------------------------------------------------
 Center     Atomic      Atomic             Coordinates (Angstroms)
 Number     Number       Type             X           Y           Z
 ---------------------------------------------------------------------
      1         12           0       -7.112106    0.616337    0.110448
      2          6           0       -4.811401   -1.944161    0.498141
      3          6           0       -4.855047    2.846263    1.106292
      4          6           0       -9.470568    3.115335   -0.358629
      5          6           0       -9.376283   -1.836269   -0.895870
      6          7           0       -5.103109    0.462718    0.812770
      7          6           0       -4.334572   -0.677065    0.872674
      8          6           0       -2.785347   -0.263981    1.227099
      9          6           0       -2.985360    1.204006    1.700911
     10          6           0       -4.410653    1.541257    1.131848
     11          6           0       -2.962920    1.269555    3.234715
     12          6           0       -1.873464   -0.540081   -0.036019
     13          6           0       -0.518229   -0.371781    0.411228
     14          6           0        0.466975   -0.664247   -0.664426
     15          8           0        0.200476   -0.988957   -1.750029
     16          8           0        1.752268   -0.400173   -0.238690
     17          7           0       -7.168860    2.559474    0.213314
     18          6           0       -6.133835    3.418287    0.741727
     19          6           0       -6.523092    4.774443    0.745427
     20          6           0       -7.811278    4.853369    0.424696
     21          6           0       -8.215045    3.518495    0.146119
     22          6           0       -5.692731    5.899441    1.323235
     23          6           0       -8.772790    5.931975    0.491222
     24          6           0       -8.412134    7.153410    0.293964
     25          7           0       -9.130003    0.671184   -0.545127
     26          6           0       -9.919568    1.751534   -0.688805
     27          6           0      -11.211415    1.429449   -1.257830
     28          6           0      -11.226804   -0.017887   -1.367990
     29          6           0       -9.917409   -0.477487   -0.892362
     30          6           0      -12.348316    2.349964   -1.569798
     31          6           0      -12.400814   -0.756711   -1.827729
     32          6           0      -12.164242   -1.158261   -3.395999
     33          7           0       -7.221286   -1.441792   -0.043093
     34          6           0       -8.207948   -2.374666   -0.447149
     35          6           0       -7.722412   -3.639399   -0.413929
     36          6           0       -6.531363   -3.548855    0.097713
     37          6           0       -6.130125   -2.235455    0.156657
     38          6           0       -8.531385   -4.910618   -0.826750
     39          6           0       -5.278107   -4.343048    0.357833
     40          8           0       -5.064376   -5.527164    0.309647
     41          6           0       -4.116101   -3.292893    0.546607
     42          6           0       -3.429186   -3.529812    1.860936
     43          8           0       -3.784328   -2.977902    2.896391
     44          8           0       -2.607234   -4.621636    1.789080
     45          6           0       -2.100287   -5.043017    3.051608
     46          6           0        2.759780   -0.636532   -1.156035
     47          6           0        4.080656   -0.337652   -0.469056
     48          6           0        5.117796    0.314078   -0.961650
     49          6           0        5.131210    1.106716   -2.185784
     50          6           0        6.460132    0.434058   -0.190769
     51          6           0        7.601784   -0.349682   -0.970023
     52          6           0        8.872432   -0.311830   -0.127029
     53          6           0       10.136972   -0.760713   -0.841752
     54          6           0       10.151562   -2.291238   -1.275424
     55          6           0       11.402982   -0.394883    0.048220
     56          6           0       12.831875   -0.650338   -0.623947
     57          6           0       13.947559   -0.148951    0.116833
     58          6           0       15.315966   -0.186629   -0.529740
     59          6           0       15.747813   -1.662941   -0.804244
     60          6           0       16.447764    0.459349    0.414347
     61          6           0       17.896619    0.557086   -0.222749
     62          6           0       18.773479    1.389971    0.676182
     63          6           0       20.263659    1.518731    0.257885
     64          6           0       20.301041    2.329684   -1.104031
     65          6           0       21.209557    2.140208    1.249823
     66          1           0       -4.060156    3.571170    1.319521
     67          1           0      -10.297934    3.806952   -0.430594
     68          1           0      -10.149270   -2.608782   -1.017098
     69          1           0       -2.725848   -0.998965    1.938606
     70          1           0       -2.188353    1.633274    1.160554
     71          1           0       -1.952486    1.276458    3.531263
     72          1           0       -3.344914    2.412380    3.557522
     73          1           0       -3.532514    0.586531    3.895596
     74          1           0       -2.139285   -1.515901   -0.397751
     75          1           0       -2.244133    0.181480   -0.899004
     76          1           0       -0.359740    0.621210    0.884246
     77          1           0       -0.211662   -1.026846    1.234215
     78          1           0       -5.113979    6.382629    0.607396
     79          1           0       -6.118903    6.769145    1.778869
     80          1           0       -5.012080    5.534888    2.069036
     81          1           0       -9.939333    5.501239    0.357203
     82          1           0       -9.123938    8.076805    0.377502
     83          1           0       -7.252793    7.154561    0.112781
     84          1           0      -12.149215    2.911935   -2.515756
     85          1           0      -13.365342    1.808606   -1.595417
     86          1           0      -12.442494    3.051215   -0.905323
     87          1           0      -12.614992   -1.534508   -1.247129
     88          1           0      -13.490826   -0.140546   -2.068126
     89          1           0      -12.984768   -1.741860   -3.564758
     90          1           0      -12.156782   -0.249208   -3.945811
     91          1           0      -11.075117   -1.609115   -3.421053
     92          1           0       -8.898394   -4.650276   -1.854654
     93          1           0       -7.995663   -5.755175   -0.729921
     94          1           0       -9.419061   -4.925107   -0.128594
     95          1           0       -3.357515   -3.547204   -0.263198
     96          1           0       -1.413800   -4.388745    3.491150
     97          1           0       -2.864983   -4.893440    3.874063
     98          1           0       -1.781925   -6.036112    2.968413
     99          1           0        2.623618   -1.719322   -1.513675
    100          1           0        2.625103   -0.022884   -2.079066
    101          1           0        4.100190   -0.833829    0.701885
    102          1           0        4.072361    1.318938   -2.481211
    103          1           0        5.463718    2.082790   -1.865243
    104          1           0        5.802270    0.627361   -2.843958
    105          1           0        6.565804    1.457780    0.106198
    106          1           0        6.271713   -0.332589    0.711893
    107          1           0        7.374848   -1.306075   -1.144943
    108          1           0        7.771940    0.203345   -1.878306
    109          1           0        9.084013    0.816144    0.051389
    110          1           0        8.645249   -0.829203    0.777576
    111          1           0       10.262744   -0.298999   -1.720998
    112          1           0        9.087311   -2.647309   -1.864819
    113          1           0       10.950666   -2.707971   -1.799417
    114          1           0       10.058933   -2.936293   -0.508963
    115          1           0       11.206277    0.751287    0.259602
    116          1           0       11.357069   -1.000458    1.001684
    117          1           0       12.979245   -1.586416   -0.976788
    118          1           0       12.687787    0.067062   -1.568110
    119          1           0       13.836955    0.791326    0.505767
    120          1           0       13.923673   -0.671520    1.038546
    121          1           0       15.348516    0.413814   -1.518321
    122          1           0       15.929169   -2.196729    0.149105
    123          1           0       15.109865   -2.080463   -1.586936
    124          1           0       16.736293   -1.681003   -1.359961
    125          1           0       16.086993    1.418788    0.673917
    126          1           0       16.549751   -0.151893    1.267134
    127          1           0       18.225932   -0.555056   -0.343771
    128          1           0       17.759165    0.838066   -1.340525
    129          1           0       18.324324    2.491968    0.913684
    130          1           0       18.673991    0.863595    1.607199
    131          1           0       20.648691    0.614178    0.023474
    132          1           0       20.148887    3.423729   -0.927876
    133          1           0       21.176316    2.247166   -1.858620
    134          1           0       19.341119    1.974727   -1.961602
    135          1           0       21.088948    1.663667    2.251536
    136          1           0       22.098709    1.946510    0.738679
    137          1           0       21.089394    3.159135    1.277896
 ---------------------------------------------------------------------

 SCF Done:  E(RCAM-B3LYP) =  -2932.69096124     A.U. after   17 cycles

 Excitation energies and oscillator strengths:

 Excited State   1:      Singlet-A      2.1332 eV  581.22 nm  f=0.1462  <S**2>=0.000
     240 -> 242        0.13148
     240 -> 243       -0.31046
     241 -> 242        0.60685
 This state for optimization and/or second-order correction.
 Total Energy, E(TD-HF/TD-KS) =  -2932.61256875
 Copying the excited state density for this state as the 1-particle RhoCI density.

 The electronic state is 1-A.
 Alpha  occ. eigenvalues --  -46.83936 -19.27005 -19.25167 -19.21695 -19.21463
 Alpha  occ. eigenvalues --  -19.21018 -14.41450 -14.39662 -14.38760 -14.38368
 Alpha  occ. eigenvalues --  -10.39602 -10.38676 -10.35635 -10.31595 -10.31142
 Alpha  occ. eigenvalues --  -10.30851 -10.30792 -10.30237 -10.29447 -10.29344
 Alpha  occ. eigenvalues --  -10.28765 -10.28666 -10.28074 -10.28071 -10.27996
 Alpha  occ. eigenvalues --  -10.27983 -10.27657 -10.27547 -10.27529 -10.27362
 Alpha  occ. eigenvalues --  -10.27283 -10.26990 -10.26979 -10.26951 -10.26915
 Alpha  occ. eigenvalues --  -10.26908 -10.26777 -10.26738 -10.26714 -10.26580
 Alpha  occ. eigenvalues --  -10.26573 -10.26541 -10.26388 -10.26368 -10.26281
 Alpha  occ. eigenvalues --  -10.26176 -10.26106 -10.25914 -10.25842 -10.25707
 Alpha  occ. eigenvalues --  -10.25629 -10.25463 -10.25382 -10.25239 -10.25034
 Alpha  occ. eigenvalues --  -10.24946 -10.24878 -10.24833 -10.24773 -10.24703
 Alpha  occ. eigenvalues --  -10.24635 -10.24361 -10.24250 -10.23350 -10.22816
 Alpha  occ. eigenvalues --   -3.12948  -1.87649  -1.87164  -1.87158  -1.19495
 Alpha  occ. eigenvalues --   -1.18052  -1.12120  -1.11546  -1.09420  -1.04567
 Alpha  occ. eigenvalues --   -1.03593  -1.02228  -1.00493  -0.92587  -0.91423
 Alpha  occ. eigenvalues --   -0.91049  -0.90552  -0.90402  -0.89211  -0.88422
 Alpha  occ. eigenvalues --   -0.88132  -0.87638  -0.87169  -0.86666  -0.86108
 Alpha  occ. eigenvalues --   -0.84982  -0.84689  -0.83673  -0.83148  -0.82302
 Alpha  occ. eigenvalues --   -0.81567  -0.81004  -0.80272  -0.80101  -0.78937
 Alpha  occ. eigenvalues --   -0.77939  -0.76934  -0.76320  -0.75904  -0.75397
 Alpha  occ. eigenvalues --   -0.75137  -0.75030  -0.73660  -0.73196  -0.72834
 Alpha  occ. eigenvalues --   -0.71629  -0.70627  -0.69699  -0.69156  -0.68060
 Alpha  occ. eigenvalues --   -0.66788  -0.65892  -0.65745  -0.65241  -0.65083
 Alpha  occ. eigenvalues --   -0.64177  -0.64172  -0.63233  -0.62959  -0.62432
 Alpha  occ. eigenvalues --   -0.61645  -0.60964  -0.60672  -0.59632  -0.58497
 Alpha  occ. eigenvalues --   -0.58458  -0.57844  -0.57520  -0.57073  -0.56880
 Alpha  occ. eigenvalues --   -0.56286  -0.55357  -0.55299  -0.55173  -0.54781
 Alpha  occ. eigenvalues --   -0.54454  -0.54371  -0.54048  -0.53656  -0.53494
 Alpha  occ. eigenvalues --   -0.53073  -0.52482  -0.52414  -0.51903  -0.51538
 Alpha  occ. eigenvalues --   -0.51442  -0.51252  -0.50853  -0.50775  -0.50466
 Alpha  occ. eigenvalues --   -0.50312  -0.49905  -0.49728  -0.49652  -0.49578
 Alpha  occ. eigenvalues --   -0.49163  -0.49089  -0.48998  -0.48649  -0.48511
 Alpha  occ. eigenvalues --   -0.48327  -0.47866  -0.47813  -0.47504  -0.47351
 Alpha  occ. eigenvalues --   -0.47195  -0.47105  -0.46858  -0.46212  -0.46057
 Alpha  occ. eigenvalues --   -0.45964  -0.45936  -0.45847  -0.45505  -0.45214
 Alpha  occ. eigenvalues --   -0.44943  -0.44937  -0.44508  -0.44462  -0.44349
 Alpha  occ. eigenvalues --   -0.44142  -0.44067  -0.43689  -0.43353  -0.43131
 Alpha  occ. eigenvalues --   -0.43066  -0.42996  -0.42792  -0.42568  -0.42449
 Alpha  occ. eigenvalues --   -0.42441  -0.42183  -0.42050  -0.41855  -0.41642
 Alpha  occ. eigenvalues --   -0.41533  -0.40746  -0.40400  -0.40047  -0.39903
 Alpha  occ. eigenvalues --   -0.39817  -0.39696  -0.39503  -0.39083  -0.38678
 Alpha  occ. eigenvalues --   -0.38552  -0.38425  -0.38005  -0.37822  -0.37523
 Alpha  occ. eigenvalues --   -0.37476  -0.37300  -0.37137  -0.36648  -0.36551
 Alpha  occ. eigenvalues --   -0.36282  -0.36248  -0.36074  -0.35924  -0.35617
 Alpha  occ. eigenvalues --   -0.35384  -0.35227  -0.34974  -0.34356  -0.34034
 Alpha  occ. eigenvalues --   -0.33684  -0.33413  -0.32092  -0.31525  -0.30132
 Alpha  occ. eigenvalues --   -0.29649  -0.29433  -0.28467  -0.26244  -0.22673
 Alpha  occ. eigenvalues --   -0.21579
 Alpha virt. eigenvalues --   -0.05969  -0.03658   0.01871   0.04321   0.05627
 Alpha virt. eigenvalues --    0.06369   0.06858   0.07195   0.07501   0.07945
 Alpha virt. eigenvalues --    0.08257   0.10914   0.11526   0.11585   0.12034

 Mulliken charges:
               1
     1  Mg   0.812935
     2  C    0.073142
     3  C   -0.230735
     4  C   -0.177639
     5  C   -0.184962
     6  N   -0.620825
     7  C    0.247609
     8  C   -0.159603
     9  C   -0.125838
    10  C    0.351506
    11  C   -0.298319
    12  C   -0.167997
    13  C   -0.268777
    14  C    0.606247
    15  O   -0.434232
    16  O   -0.483980
    17  N   -0.699551
    18  C    0.301380
    19  C    0.013421
    20  C    0.055059
    21  C    0.269221
    22  C   -0.399419
    23  C   -0.008715
    24  C   -0.267902
    25  N   -0.663128
    26  C    0.290975
    27  C    0.005158
    28  C    0.035849
    29  C    0.241483
    30  C   -0.364728
    31  C   -0.253269
    32  C   -0.307742
    33  N   -0.717791
    34  C    0.287374
    35  C    0.010963
    36  C   -0.009388
    37  C    0.277152
    38  C   -0.342554
    39  C    0.381095
    40  O   -0.440654
    41  C   -0.332646
    42  C    0.631044
    43  O   -0.478847
    44  O   -0.451022
    45  C   -0.096623
    46  C    0.017353
    47  C   -0.126620
    48  C    0.093666
    49  C   -0.346505
    50  C   -0.224579
    51  C   -0.174909
    52  C   -0.169185
    53  C   -0.047450
    54  C   -0.328748
    55  C   -0.179945
    56  C   -0.170582
    57  C   -0.145820
    58  C   -0.074019
    59  C   -0.315861
    60  C   -0.183859
    61  C   -0.177060
    62  C   -0.151236
    63  C   -0.060224
    64  C   -0.305731
    65  C   -0.301422
    66  H    0.076206
    67  H    0.078919
    68  H    0.085244
    69  H    0.128631
    70  H    0.105938
    71  H    0.117767
    72  H    0.074247
    73  H    0.141781
    74  H    0.126779
    75  H    0.109946
    76  H    0.139357
    77  H    0.143256
    78  H    0.130493
    79  H    0.132422
    80  H    0.120053
    81  H    0.079574
    82  H    0.113939
    83  H    0.104366
    84  H    0.115301
    85  H    0.106063
    86  H    0.126679
    87  H    0.114790
    88  H    0.072548
    89  H    0.113355
    90  H    0.123109
    91  H    0.098245
    92  H    0.124195
    93  H    0.147282
    94  H    0.122889
    95  H    0.157173
    96  H    0.124494
    97  H    0.129920
    98  H    0.133004
    99  H    0.108851
   100  H    0.106099
   101  H    0.065233
   102  H    0.106656
   103  H    0.114873
   104  H    0.132674
   105  H    0.111075
   106  H    0.078936
   107  H    0.116139
   108  H    0.094736
   109  H    0.076955
   110  H    0.099533
   111  H    0.100328
   112  H    0.052542
   113  H    0.112765
   114  H    0.114974
   115  H    0.076597
   116  H    0.082915
   117  H    0.106157
   118  H    0.060058
   119  H    0.091917
   120  H    0.085430
   121  H    0.072656
   122  H    0.104181
   123  H    0.102574
   124  H    0.090870
   125  H    0.092616
   126  H    0.094565
   127  H    0.082814
   128  H    0.083796
   129  H    0.068898
   130  H    0.094097
   131  H    0.101861
   132  H    0.101922
   133  H    0.094689
   134  H    0.051683
   135  H    0.097450
   136  H    0.110694
   137  H    0.109239
 Sum of Mulliken charges =   0.00000

 Dipole moment (field-independent basis, Debye):
    X=              2.1261    Y=              4.0400    Z=              1.1395  Tot=              4.7053
 Quadrupole moment (field-independent basis, Debye-Ang):
   XX=           -347.0310   YY=           -384.3586   ZZ=           -399.0724
   XY=            -24.4653   XZ=             12.0820   YZ=             -1.7935

 Normal termination of Gaussian 09 at Sat Jun 29 00:49:50 2019.
