 Gaussian 09, Revision D.01,
 Gaussian 09:  ES64L-G09RevD.01 24-Apr-2013

 -------------------------------------
 # td=(NStates=1) CAM-B3LYP/6-31G(d,p)
 -------------------------------------

 --
 TD
 --
 Symbolic Z-matrix:
 Charge =  0 Multiplicity = 1

                         Standard orientation:
 ---------------------------------------------------------------------
 Center     Atomic      Atomic             Coordinates (Angstroms)
 Number     Number       Type             X           Y           Z
 ---------------------------------------------------------------------
      1         12           0       -7.181865    0.603114    0.173740
      2          6           0       -4.908087   -1.987506    0.538628
      3          6           0       -4.816929    2.738066    1.221915
      4          6           0       -9.322755    3.134138   -0.341122
      5          6           0       -9.624474   -1.663628   -0.925123
      6          7           0       -5.132098    0.435747    0.834517
      7          6           0       -4.356907   -0.732418    0.910576
      8          6           0       -2.886596   -0.471297    1.294651
      9          6           0       -3.006911    1.102036    1.704879
     10          6           0       -4.366548    1.449905    1.214654
     11          6           0       -2.867665    1.232182    3.285961
     12          6           0       -1.882335   -0.647375    0.064210
     13          6           0       -0.527547   -0.540681    0.497588
     14          6           0        0.612538   -0.796101   -0.552481
     15          8           0        0.311999   -1.079494   -1.668282
     16          8           0        1.868791   -0.657492   -0.089443
     17          7           0       -7.101393    2.635009    0.269912
     18          6           0       -6.038516    3.313736    0.803374
     19          6           0       -6.338301    4.806187    0.813902
     20          6           0       -7.616870    4.890387    0.496296
     21          6           0       -8.076547    3.497414    0.141228
     22          6           0       -5.457501    5.883962    1.384701
     23          6           0       -8.471711    6.100998    0.124350
     24          6           0       -8.132261    7.318725    0.013011
     25          7           0       -9.175641    0.637351   -0.376908
     26          6           0       -9.827931    1.801938   -0.576499
     27          6           0      -11.234828    1.543714   -1.076530
     28          6           0      -11.269036    0.122162   -1.160865
     29          6           0       -9.996180   -0.370435   -0.833930
     30          6           0      -12.160980    2.596016   -1.461134
     31          6           0      -12.496667   -0.661022   -1.726542
     32          6           0      -12.211534   -1.142877   -3.166601
     33          7           0       -7.303042   -1.389994   -0.196134
     34          6           0       -8.396041   -2.279209   -0.560977
     35          6           0       -7.894466   -3.583375   -0.511624
     36          6           0       -6.580269   -3.531219   -0.149716
     37          6           0       -6.226073   -2.109983    0.031181
     38          6           0       -8.623067   -4.807483   -0.868127
     39          6           0       -5.359685   -4.296866    0.162409
     40          8           0       -5.227441   -5.561265    0.195594
     41          6           0       -4.261908   -3.309035    0.442607
     42          6           0       -3.525133   -3.671556    1.726362
     43          8           0       -3.746333   -3.209232    2.881858
     44          8           0       -2.647513   -4.623473    1.416333
     45          6           0       -2.179469   -5.331611    2.715005
     46          6           0        2.832533   -0.659883   -1.103761
     47          6           0        4.162474   -0.569356   -0.499977
     48          6           0        5.019682    0.317764   -0.911064
     49          6           0        4.995927    1.161263   -2.178511
     50          6           0        6.385953    0.473789   -0.179791
     51          6           0        7.666132   -0.020890   -0.857134
     52          6           0        8.909825   -0.049539    0.042801
     53          6           0       10.125424   -0.522741   -0.704601
     54          6           0       10.047039   -1.963732   -1.147047
     55          6           0       11.399004   -0.326078    0.124827
     56          6           0       12.732965   -0.587983   -0.661360
     57          6           0       14.007370   -0.240835    0.297544
     58          6           0       15.344994   -0.161499   -0.541876
     59          6           0       15.691102   -1.610754   -1.080189
     60          6           0       16.462348    0.275831    0.427246
     61          6           0       17.802932    0.502593   -0.304266
     62          6           0       18.777170    1.291275    0.618019
     63          6           0       20.186662    1.353859    0.144820
     64          6           0       20.301579    2.227783   -1.151070
     65          6           0       21.035842    2.013018    1.217736
     66          1           0       -3.972950    3.356008    1.462094
     67          1           0      -10.230935    3.860976   -0.422915
     68          1           0      -10.220722   -2.333167   -1.281004
     69          1           0       -2.715952   -1.109286    2.053718
     70          1           0       -2.140354    1.612061    1.187955
     71          1           0       -1.778076    0.888343    3.647220
     72          1           0       -2.965337    2.216255    3.834639
     73          1           0       -3.831741    0.585223    3.650706
     74          1           0       -2.182938   -1.541446   -0.549604
     75          1           0       -1.834379    0.336574   -0.594959
     76          1           0       -0.369401    0.449072    0.798605
     77          1           0       -0.345440   -1.213645    1.393414
     78          1           0       -4.721978    6.157073    0.624350
     79          1           0       -6.000410    6.642346    1.548342
     80          1           0       -5.057883    5.732224    2.402907
     81          1           0       -9.489943    5.577686    0.006682
     82          1           0       -8.870500    8.196936   -0.278233
     83          1           0       -6.948621    7.639490    0.036734
     84          1           0      -11.896184    3.134032   -2.312716
     85          1           0      -13.235062    2.196017   -1.787333
     86          1           0      -12.399209    3.484578   -0.848628
     87          1           0      -12.618764   -1.575933   -0.996203
     88          1           0      -13.269470   -0.060745   -1.544277
     89          1           0      -12.940880   -1.857366   -3.449296
     90          1           0      -12.233569   -0.160584   -3.910411
     91          1           0      -11.271639   -1.657101   -3.229381
     92          1           0       -9.041935   -4.835368   -1.917860
     93          1           0       -7.921404   -5.790168   -0.784357
     94          1           0       -9.406616   -4.857904   -0.311169
     95          1           0       -3.532734   -3.361409   -0.300718
     96          1           0       -1.691502   -4.546860    3.595856
     97          1           0       -3.124663   -5.642480    3.029354
     98          1           0       -1.571396   -6.184168    2.254157
     99          1           0        3.066326   -1.580547   -1.772444
    100          1           0        2.436362    0.117252   -1.839707
    101          1           0        4.310541   -1.225646    0.336422
    102          1           0        4.130189    1.372844   -2.648179
    103          1           0        5.441935    2.176116   -1.864678
    104          1           0        5.469421    0.796727   -3.101303
    105          1           0        6.390242    1.416221    0.116453
    106          1           0        6.245019   -0.131291    0.736260
    107          1           0        7.348200   -1.041373   -1.109913
    108          1           0        7.874704    0.667625   -1.561395
    109          1           0        9.109865    0.924561    0.407621
    110          1           0        8.662224   -0.788252    0.926182
    111          1           0       10.410377    0.052183   -1.669765
    112          1           0        9.056926   -2.033771   -1.767369
    113          1           0       11.033043   -2.144987   -1.761210
    114          1           0       10.254475   -2.715565   -0.251889
    115          1           0       11.367433    0.739926    0.487337
    116          1           0       11.685952   -1.045059    1.053359
    117          1           0       12.933508   -1.664013   -1.076702
    118          1           0       12.546148    0.135931   -1.480682
    119          1           0       13.727640    0.632400    0.676394
    120          1           0       13.941577   -0.899167    1.139535
    121          1           0       15.080293    0.658655   -1.282219
    122          1           0       15.663536   -2.475933   -0.397615
    123          1           0       14.950103   -1.980332   -1.764932
    124          1           0       16.724520   -1.665351   -1.631754
    125          1           0       15.920729    1.208873    0.932493
    126          1           0       16.548723   -0.504907    1.144454
    127          1           0       18.257789   -0.405705   -0.661980
    128          1           0       17.522393    1.124363   -1.173370
    129          1           0       18.390560    2.261199    1.148396
    130          1           0       18.866713    0.721697    1.614874
    131          1           0       20.777172    0.513705   -0.283386
    132          1           0       20.233170    3.342413   -0.761801
    133          1           0       21.265717    2.272664   -1.565775
    134          1           0       19.537678    1.941439   -1.770805
    135          1           0       21.184820    1.394837    2.032844
    136          1           0       22.103829    2.085641    0.790574
    137          1           0       20.707713    2.980206    1.583567
 ---------------------------------------------------------------------

 SCF Done:  E(RCAM-B3LYP) =  -2932.65753534     A.U. after   18 cycles

 Excitation energies and oscillator strengths:

 Excited State   1:      Singlet-A      2.1522 eV  576.08 nm  f=0.2109  <S**2>=0.000
     240 -> 242       -0.17948
     240 -> 243        0.24378
     241 -> 242        0.61891
     241 -> 243        0.13163
 This state for optimization and/or second-order correction.
 Total Energy, E(TD-HF/TD-KS) =  -2932.57844290
 Copying the excited state density for this state as the 1-particle RhoCI density.

 The electronic state is 1-A.
 Alpha  occ. eigenvalues --  -46.84891 -19.27457 -19.26980 -19.21412 -19.20610
 Alpha  occ. eigenvalues --  -19.18958 -14.42081 -14.40389 -14.39030 -14.38767
 Alpha  occ. eigenvalues --  -10.39540 -10.39251 -10.34398 -10.33413 -10.32159
 Alpha  occ. eigenvalues --  -10.31507 -10.30892 -10.30719 -10.30103 -10.29669
 Alpha  occ. eigenvalues --  -10.29376 -10.28925 -10.28262 -10.28081 -10.28022
 Alpha  occ. eigenvalues --  -10.27778 -10.27748 -10.27699 -10.27684 -10.27589
 Alpha  occ. eigenvalues --  -10.27448 -10.27422 -10.27408 -10.27248 -10.26975
 Alpha  occ. eigenvalues --  -10.26826 -10.26763 -10.26740 -10.26729 -10.26526
 Alpha  occ. eigenvalues --  -10.26431 -10.26408 -10.26224 -10.26181 -10.26130
 Alpha  occ. eigenvalues --  -10.26129 -10.26123 -10.26062 -10.25884 -10.25590
 Alpha  occ. eigenvalues --  -10.25486 -10.25361 -10.25340 -10.25289 -10.25267
 Alpha  occ. eigenvalues --  -10.25266 -10.25229 -10.25218 -10.24756 -10.24460
 Alpha  occ. eigenvalues --  -10.24200 -10.24144 -10.24084 -10.23560 -10.23194
 Alpha  occ. eigenvalues --   -3.13858  -1.88567  -1.88111  -1.88016  -1.20174
 Alpha  occ. eigenvalues --   -1.16871  -1.11317  -1.07042  -1.06675  -1.05681
 Alpha  occ. eigenvalues --   -1.04168  -1.03022  -1.01932  -0.92824  -0.91670
 Alpha  occ. eigenvalues --   -0.90810  -0.90259  -0.90210  -0.89770  -0.88954
 Alpha  occ. eigenvalues --   -0.88117  -0.87904  -0.87463  -0.87328  -0.86055
 Alpha  occ. eigenvalues --   -0.85506  -0.84752  -0.83574  -0.83174  -0.82879
 Alpha  occ. eigenvalues --   -0.81450  -0.81001  -0.80286  -0.79411  -0.79350
 Alpha  occ. eigenvalues --   -0.77704  -0.77521  -0.76632  -0.75887  -0.75679
 Alpha  occ. eigenvalues --   -0.75322  -0.74884  -0.74061  -0.73690  -0.72859
 Alpha  occ. eigenvalues --   -0.71532  -0.70209  -0.70169  -0.68818  -0.67963
 Alpha  occ. eigenvalues --   -0.67177  -0.66625  -0.66034  -0.64891  -0.64298
 Alpha  occ. eigenvalues --   -0.63919  -0.63838  -0.63282  -0.62314  -0.62110
 Alpha  occ. eigenvalues --   -0.61604  -0.60857  -0.60667  -0.59945  -0.59544
 Alpha  occ. eigenvalues --   -0.59036  -0.58013  -0.57540  -0.57188  -0.57092
 Alpha  occ. eigenvalues --   -0.56585  -0.55844  -0.55554  -0.54965  -0.54769
 Alpha  occ. eigenvalues --   -0.54588  -0.54047  -0.53915  -0.53328  -0.53106
 Alpha  occ. eigenvalues --   -0.52917  -0.52603  -0.52446  -0.52144  -0.52063
 Alpha  occ. eigenvalues --   -0.51679  -0.51513  -0.51426  -0.51060  -0.50660
 Alpha  occ. eigenvalues --   -0.50443  -0.50221  -0.49743  -0.49619  -0.49395
 Alpha  occ. eigenvalues --   -0.49321  -0.49268  -0.48797  -0.48489  -0.48104
 Alpha  occ. eigenvalues --   -0.47545  -0.47440  -0.47228  -0.47160  -0.47107
 Alpha  occ. eigenvalues --   -0.47013  -0.46664  -0.46549  -0.46215  -0.46177
 Alpha  occ. eigenvalues --   -0.45929  -0.45577  -0.45408  -0.45148  -0.44977
 Alpha  occ. eigenvalues --   -0.44689  -0.44353  -0.44337  -0.43995  -0.43842
 Alpha  occ. eigenvalues --   -0.43821  -0.43653  -0.43621  -0.43435  -0.43193
 Alpha  occ. eigenvalues --   -0.43109  -0.42941  -0.42799  -0.42670  -0.42348
 Alpha  occ. eigenvalues --   -0.42269  -0.42167  -0.41746  -0.41670  -0.41217
 Alpha  occ. eigenvalues --   -0.41071  -0.40874  -0.40683  -0.40465  -0.40185
 Alpha  occ. eigenvalues --   -0.39981  -0.39756  -0.39705  -0.39486  -0.39053
 Alpha  occ. eigenvalues --   -0.38972  -0.38281  -0.38240  -0.37949  -0.37883
 Alpha  occ. eigenvalues --   -0.37636  -0.37542  -0.37403  -0.37084  -0.36825
 Alpha  occ. eigenvalues --   -0.36619  -0.36370  -0.36364  -0.36003  -0.35868
 Alpha  occ. eigenvalues --   -0.35714  -0.35244  -0.33786  -0.33659  -0.33278
 Alpha  occ. eigenvalues --   -0.33020  -0.32661  -0.32123  -0.31157  -0.29756
 Alpha  occ. eigenvalues --   -0.29585  -0.29128  -0.28838  -0.27596  -0.23029
 Alpha  occ. eigenvalues --   -0.21121
 Alpha virt. eigenvalues --   -0.05905  -0.02922   0.01704   0.04377   0.05619
 Alpha virt. eigenvalues --    0.06058   0.06585   0.06856   0.07614   0.07653
 Alpha virt. eigenvalues --    0.07758   0.10630   0.11423   0.11615   0.12229

 Mulliken charges:
               1
     1  Mg   0.819987
     2  C    0.066851
     3  C   -0.220630
     4  C   -0.210196
     5  C   -0.139097
     6  N   -0.631644
     7  C    0.269004
     8  C   -0.130011
     9  C   -0.167479
    10  C    0.388171
    11  C   -0.294312
    12  C   -0.164604
    13  C   -0.255638
    14  C    0.593582
    15  O   -0.444627
    16  O   -0.457105
    17  N   -0.691331
    18  C    0.300840
    19  C   -0.007399
    20  C   -0.002181
    21  C    0.338503
    22  C   -0.355427
    23  C    0.044638
    24  C   -0.303120
    25  N   -0.693695
    26  C    0.287796
    27  C    0.044746
    28  C   -0.011491
    29  C    0.326223
    30  C   -0.415233
    31  C   -0.204172
    32  C   -0.296331
    33  N   -0.757940
    34  C    0.220719
    35  C    0.016655
    36  C    0.003701
    37  C    0.320345
    38  C   -0.374447
    39  C    0.372002
    40  O   -0.511929
    41  C   -0.298759
    42  C    0.628134
    43  O   -0.515734
    44  O   -0.459821
    45  C   -0.093084
    46  C    0.021157
    47  C   -0.148036
    48  C    0.111676
    49  C   -0.360680
    50  C   -0.237504
    51  C   -0.163887
    52  C   -0.162480
    53  C   -0.050712
    54  C   -0.292229
    55  C   -0.172922
    56  C   -0.197561
    57  C   -0.190299
    58  C   -0.057622
    59  C   -0.326372
    60  C   -0.159377
    61  C   -0.184115
    62  C   -0.163791
    63  C   -0.061938
    64  C   -0.302144
    65  C   -0.313398
    66  H    0.074916
    67  H    0.088924
    68  H    0.060348
    69  H    0.138698
    70  H    0.101451
    71  H    0.100405
    72  H    0.112232
    73  H    0.112536
    74  H    0.123776
    75  H    0.093880
    76  H    0.130860
    77  H    0.117336
    78  H    0.121585
    79  H    0.129417
    80  H    0.122218
    81  H    0.082715
    82  H    0.106322
    83  H    0.093838
    84  H    0.141169
    85  H    0.096796
    86  H    0.120187
    87  H    0.088062
    88  H    0.111457
    89  H    0.112292
    90  H    0.088539
    91  H    0.119136
    92  H    0.110557
    93  H    0.135877
    94  H    0.133314
    95  H    0.172710
    96  H    0.132063
    97  H    0.168098
    98  H    0.137631
    99  H    0.115168
   100  H    0.112372
   101  H    0.106239
   102  H    0.115545
   103  H    0.096783
   104  H    0.124161
   105  H    0.103974
   106  H    0.080741
   107  H    0.104146
   108  H    0.103583
   109  H    0.092172
   110  H    0.081785
   111  H    0.076962
   112  H    0.094392
   113  H    0.090938
   114  H    0.089972
   115  H    0.081510
   116  H    0.067296
   117  H    0.089187
   118  H    0.084075
   119  H    0.100088
   120  H    0.094125
   121  H    0.088929
   122  H    0.106367
   123  H    0.105935
   124  H    0.087019
   125  H    0.070767
   126  H    0.100356
   127  H    0.108482
   128  H    0.098534
   129  H    0.090673
   130  H    0.077366
   131  H    0.093245
   132  H    0.069957
   133  H    0.102749
   134  H    0.105020
   135  H    0.106402
   136  H    0.077640
   137  H    0.103773
 Sum of Mulliken charges =   0.00000

 Dipole moment (field-independent basis, Debye):
    X=              1.7301    Y=              5.5368    Z=              0.4803  Tot=              5.8206
 Quadrupole moment (field-independent basis, Debye-Ang):
   XX=           -362.7882   YY=           -391.4349   ZZ=           -398.8837
   XY=            -34.3921   XZ=             13.1928   YZ=             -1.7808

 Normal termination of Gaussian 09 at Thu Jun 27 15:11:18 2019.
