 Gaussian 09, Revision D.01,
 Gaussian 09:  ES64L-G09RevD.01 24-Apr-2013

 -------------------------------------
 # td=(NStates=1) CAM-B3LYP/6-31G(d,p)
 -------------------------------------

 --
 TD
 --
 Symbolic Z-matrix:
 Charge =  0 Multiplicity = 1

                         Standard orientation:
 ---------------------------------------------------------------------
 Center     Atomic      Atomic             Coordinates (Angstroms)
 Number     Number       Type             X           Y           Z
 ---------------------------------------------------------------------
      1         12           0       -7.126518    0.585920    0.146827
      2          6           0       -4.857783   -1.932679    0.548915
      3          6           0       -4.948067    2.842920    1.104018
      4          6           0       -9.450223    3.011129   -0.323583
      5          6           0       -9.431832   -1.791552   -0.769665
      6          7           0       -5.095479    0.494976    0.662045
      7          6           0       -4.398275   -0.633056    0.752174
      8          6           0       -3.044830   -0.374648    1.195738
      9          6           0       -3.112747    1.096561    1.639240
     10          6           0       -4.498475    1.549069    1.114604
     11          6           0       -3.109353    1.288592    3.164794
     12          6           0       -1.915006   -0.455834    0.067527
     13          6           0       -0.449530   -0.335882    0.553392
     14          6           0        0.614826   -0.457137   -0.531526
     15          8           0        0.317510   -0.864821   -1.684102
     16          8           0        1.777879   -0.372547   -0.079265
     17          7           0       -7.202642    2.665207    0.401998
     18          6           0       -6.123991    3.446366    0.670146
     19          6           0       -6.522106    4.827359    0.908474
     20          6           0       -7.812310    4.811988    0.351063
     21          6           0       -8.145692    3.473730    0.115622
     22          6           0       -5.539733    5.921048    1.367453
     23          6           0       -8.770095    5.864293    0.265307
     24          6           0       -8.416061    7.205854    0.060866
     25          7           0       -9.037754    0.659803   -0.613591
     26          6           0       -9.925750    1.725213   -0.533003
     27          6           0      -11.219406    1.402714   -1.120098
     28          6           0      -11.195184    0.006131   -1.185003
     29          6           0       -9.886885   -0.422579   -0.869500
     30          6           0      -12.443101    2.373194   -1.285416
     31          6           0      -12.377416   -0.801841   -1.597001
     32          6           0      -12.276269   -1.296973   -3.141932
     33          7           0       -7.191787   -1.466344   -0.223584
     34          6           0       -8.133927   -2.279814   -0.501392
     35          6           0       -7.796879   -3.612073   -0.617783
     36          6           0       -6.471907   -3.604999   -0.249354
     37          6           0       -6.114115   -2.215157    0.013160
     38          6           0       -8.589867   -4.853940   -0.919276
     39          6           0       -5.218886   -4.390416    0.121759
     40          8           0       -5.092187   -5.573705    0.162124
     41          6           0       -4.091818   -3.433476    0.523743
     42          6           0       -3.541440   -3.697781    1.946778
     43          8           0       -3.683072   -3.095668    3.010268
     44          8           0       -2.702553   -4.690051    1.778569
     45          6           0       -2.105320   -5.232465    2.925240
     46          6           0        2.778570   -0.601270   -1.185210
     47          6           0        4.134754   -0.279649   -0.556256
     48          6           0        5.183221    0.410130   -1.016315
     49          6           0        5.138108    1.237902   -2.354057
     50          6           0        6.474019    0.526569   -0.286104
     51          6           0        7.722874   -0.068372   -0.939086
     52          6           0        8.973862   -0.138206   -0.098092
     53          6           0       10.273250   -0.657426   -0.938123
     54          6           0       10.120378   -2.049459   -1.308823
     55          6           0       11.428054   -0.359726    0.045841
     56          6           0       12.802868   -0.481150   -0.750760
     57          6           0       13.972256   -0.118246    0.147580
     58          6           0       15.387059   -0.229371   -0.412035
     59          6           0       15.655902   -1.622923   -0.952161
     60          6           0       16.448864    0.349056    0.471117
     61          6           0       17.863348    0.614652   -0.306303
     62          6           0       18.842370    1.016917    0.742060
     63          6           0       20.324422    1.245510    0.261296
     64          6           0       20.335617    2.200841   -0.903124
     65          6           0       21.032365    1.945519    1.435849
     66          1           0       -4.061089    3.387445    1.326500
     67          1           0      -10.403654    3.720468   -0.421429
     68          1           0      -10.258916   -2.414914   -0.930720
     69          1           0       -2.722468   -1.105185    2.018127
     70          1           0       -2.369641    1.698397    1.041281
     71          1           0       -2.217146    1.040190    3.623165
     72          1           0       -3.414015    2.291324    3.391630
     73          1           0       -3.996443    0.806643    3.689701
     74          1           0       -2.258225   -1.340022   -0.523834
     75          1           0       -2.006445    0.444907   -0.634100
     76          1           0       -0.513010    0.600631    1.039428
     77          1           0       -0.406618   -1.180938    1.414301
     78          1           0       -4.857488    6.219090    0.518946
     79          1           0       -6.206302    6.758357    1.648796
     80          1           0       -4.942416    5.595924    2.064625
     81          1           0       -9.850135    5.622495    0.375655
     82          1           0       -9.196510    7.948538    0.061510
     83          1           0       -7.465367    7.526740   -0.109771
     84          1           0      -12.059772    3.102192   -2.094095
     85          1           0      -13.309279    1.756532   -1.543599
     86          1           0      -12.707512    2.908056   -0.362211
     87          1           0      -12.576473   -1.786265   -1.009021
     88          1           0      -13.273795   -0.199344   -1.307325
     89          1           0      -13.242928   -1.882982   -3.262920
     90          1           0      -12.215934   -0.517874   -3.805764
     91          1           0      -11.435430   -1.709967   -3.243147
     92          1           0       -9.107834   -4.878319   -1.934949
     93          1           0       -8.018175   -5.757412   -0.759883
     94          1           0       -9.669790   -5.029158   -0.306790
     95          1           0       -3.390396   -3.321817   -0.260166
     96          1           0       -0.895248   -4.627107    3.130235
     97          1           0       -2.748645   -5.396659    3.831401
     98          1           0       -1.772583   -6.209474    2.483434
     99          1           0        2.765542   -1.752652   -1.478040
    100          1           0        2.231263    0.089102   -2.029033
    101          1           0        4.275198   -1.082674    0.311157
    102          1           0        4.227462    1.339145   -2.973926
    103          1           0        5.444472    2.290867   -2.246012
    104          1           0        5.655055    0.794658   -3.216568
    105          1           0        6.855510    1.451092    0.139178
    106          1           0        6.323120   -0.090817    0.803058
    107          1           0        7.525332   -1.124083   -1.181211
    108          1           0        7.790840    0.593854   -1.850642
    109          1           0        9.033106    0.938512    0.235506
    110          1           0        8.789396   -0.843961    0.750894
    111          1           0       10.481809    0.342401   -1.735237
    112          1           0        9.167925   -2.309818   -1.867010
    113          1           0       10.949701   -2.245870   -2.225638
    114          1           0       10.331106   -2.816079   -0.362159
    115          1           0       11.433583    0.679837    0.213782
    116          1           0       11.520415   -1.077322    0.823333
    117          1           0       13.075924   -1.502858   -0.976818
    118          1           0       12.708533    0.093620   -1.558428
    119          1           0       13.856738    0.855203    0.488917
    120          1           0       14.026691   -0.846676    0.976030
    121          1           0       15.379896    0.486323   -1.235873
    122          1           0       15.697545   -2.375878   -0.132250
    123          1           0       14.742137   -1.810725   -1.642496
    124          1           0       16.639686   -1.561566   -1.512054
    125          1           0       16.390367    1.303680    1.012200
    126          1           0       16.588055   -0.381665    1.356948
    127          1           0       18.418153   -0.211533   -0.673042
    128          1           0       17.616465    1.437776   -1.091003
    129          1           0       18.536084    2.008734    1.133551
    130          1           0       18.803839    0.285283    1.529071
    131          1           0       20.688391    0.287936   -0.217877
    132          1           0       19.651847    3.022868   -0.694576
    133          1           0       21.325105    2.647460   -1.173411
    134          1           0       19.883628    1.919220   -1.986988
    135          1           0       20.857051    1.439467    2.462080
    136          1           0       22.042235    1.967640    1.243036
    137          1           0       20.675447    3.165871    1.405137
 ---------------------------------------------------------------------

 SCF Done:  E(RCAM-B3LYP) =  -2932.63300272     A.U. after   18 cycles

 Excitation energies and oscillator strengths:

 Excited State   1:      Singlet-A      1.9946 eV  621.61 nm  f=0.2646  <S**2>=0.000
     240 -> 243       -0.25337
     241 -> 242        0.65565
 This state for optimization and/or second-order correction.
 Total Energy, E(TD-HF/TD-KS) =  -2932.55970396
 Copying the excited state density for this state as the 1-particle RhoCI density.

 The electronic state is 1-A.
 Alpha  occ. eigenvalues --  -46.85068 -19.28008 -19.27746 -19.21640 -19.20832
 Alpha  occ. eigenvalues --  -19.19375 -14.41251 -14.38563 -14.38536 -14.38525
 Alpha  occ. eigenvalues --  -10.40272 -10.38951 -10.35638 -10.34895 -10.34165
 Alpha  occ. eigenvalues --  -10.29847 -10.29733 -10.29500 -10.29353 -10.28752
 Alpha  occ. eigenvalues --  -10.28593 -10.28412 -10.28306 -10.28268 -10.28214
 Alpha  occ. eigenvalues --  -10.28126 -10.28024 -10.27992 -10.27926 -10.27525
 Alpha  occ. eigenvalues --  -10.27361 -10.27353 -10.27344 -10.27334 -10.27234
 Alpha  occ. eigenvalues --  -10.27233 -10.27218 -10.27065 -10.26887 -10.26794
 Alpha  occ. eigenvalues --  -10.26745 -10.26629 -10.26521 -10.26501 -10.26418
 Alpha  occ. eigenvalues --  -10.26317 -10.25989 -10.25964 -10.25713 -10.25574
 Alpha  occ. eigenvalues --  -10.25573 -10.25410 -10.25380 -10.25291 -10.25201
 Alpha  occ. eigenvalues --  -10.25156 -10.25132 -10.24748 -10.24737 -10.24719
 Alpha  occ. eigenvalues --  -10.24602 -10.24174 -10.23861 -10.23441 -10.23342
 Alpha  occ. eigenvalues --   -3.13944  -1.88668  -1.88151  -1.88132  -1.21380
 Alpha  occ. eigenvalues --   -1.20749  -1.12968  -1.09518  -1.07020  -1.06802
 Alpha  occ. eigenvalues --   -1.06329  -1.05694  -1.01605  -0.91684  -0.91327
 Alpha  occ. eigenvalues --   -0.90721  -0.89734  -0.89264  -0.88720  -0.88585
 Alpha  occ. eigenvalues --   -0.88503  -0.87717  -0.87335  -0.86574  -0.85978
 Alpha  occ. eigenvalues --   -0.84988  -0.84439  -0.83422  -0.83113  -0.81870
 Alpha  occ. eigenvalues --   -0.81566  -0.80810  -0.80628  -0.80169  -0.78120
 Alpha  occ. eigenvalues --   -0.77742  -0.77336  -0.76383  -0.76140  -0.75425
 Alpha  occ. eigenvalues --   -0.74996  -0.74780  -0.74401  -0.73466  -0.72719
 Alpha  occ. eigenvalues --   -0.71585  -0.70459  -0.69583  -0.68692  -0.68356
 Alpha  occ. eigenvalues --   -0.67424  -0.66090  -0.65534  -0.64467  -0.64356
 Alpha  occ. eigenvalues --   -0.63505  -0.63005  -0.62854  -0.62544  -0.62019
 Alpha  occ. eigenvalues --   -0.61211  -0.60741  -0.60648  -0.59781  -0.59433
 Alpha  occ. eigenvalues --   -0.58565  -0.58267  -0.58172  -0.57738  -0.57241
 Alpha  occ. eigenvalues --   -0.56559  -0.56087  -0.55802  -0.55339  -0.55058
 Alpha  occ. eigenvalues --   -0.55007  -0.54820  -0.54598  -0.54025  -0.53237
 Alpha  occ. eigenvalues --   -0.52943  -0.52689  -0.52362  -0.51951  -0.51702
 Alpha  occ. eigenvalues --   -0.51519  -0.50828  -0.50712  -0.50527  -0.50334
 Alpha  occ. eigenvalues --   -0.49870  -0.49694  -0.49630  -0.49528  -0.49250
 Alpha  occ. eigenvalues --   -0.48925  -0.48744  -0.48626  -0.48610  -0.48269
 Alpha  occ. eigenvalues --   -0.48189  -0.47857  -0.47780  -0.47431  -0.47302
 Alpha  occ. eigenvalues --   -0.47219  -0.46762  -0.46482  -0.46276  -0.46021
 Alpha  occ. eigenvalues --   -0.45708  -0.45611  -0.45394  -0.45193  -0.44696
 Alpha  occ. eigenvalues --   -0.44463  -0.44232  -0.43856  -0.43833  -0.43699
 Alpha  occ. eigenvalues --   -0.43497  -0.43492  -0.43359  -0.43088  -0.42835
 Alpha  occ. eigenvalues --   -0.42703  -0.42566  -0.42399  -0.42254  -0.42132
 Alpha  occ. eigenvalues --   -0.42016  -0.41846  -0.41643  -0.41472  -0.41361
 Alpha  occ. eigenvalues --   -0.41305  -0.40958  -0.40644  -0.40286  -0.40059
 Alpha  occ. eigenvalues --   -0.39949  -0.39886  -0.39670  -0.39356  -0.39312
 Alpha  occ. eigenvalues --   -0.38761  -0.38440  -0.38081  -0.37963  -0.37623
 Alpha  occ. eigenvalues --   -0.37171  -0.37139  -0.37039  -0.36809  -0.36622
 Alpha  occ. eigenvalues --   -0.36281  -0.36135  -0.35940  -0.35820  -0.35506
 Alpha  occ. eigenvalues --   -0.34984  -0.34816  -0.34492  -0.34469  -0.33245
 Alpha  occ. eigenvalues --   -0.32866  -0.32370  -0.31930  -0.30958  -0.30585
 Alpha  occ. eigenvalues --   -0.30354  -0.29697  -0.27729  -0.26588  -0.22193
 Alpha  occ. eigenvalues --   -0.20667
 Alpha virt. eigenvalues --   -0.06315  -0.02495   0.01654   0.04168   0.04822
 Alpha virt. eigenvalues --    0.05032   0.05492   0.05962   0.06943   0.07756
 Alpha virt. eigenvalues --    0.08979   0.10263   0.10796   0.11093   0.11742

 Mulliken charges:
               1
     1  Mg   0.822284
     2  C    0.020119
     3  C   -0.179789
     4  C   -0.187951
     5  C   -0.181453
     6  N   -0.637813
     7  C    0.313195
     8  C   -0.174389
     9  C   -0.153705
    10  C    0.289176
    11  C   -0.309914
    12  C   -0.175838
    13  C   -0.259655
    14  C    0.603940
    15  O   -0.517385
    16  O   -0.414254
    17  N   -0.662428
    18  C    0.260712
    19  C    0.015558
    20  C   -0.004116
    21  C    0.347920
    22  C   -0.346760
    23  C   -0.108498
    24  C   -0.246293
    25  N   -0.664829
    26  C    0.258624
    27  C    0.013983
    28  C    0.019330
    29  C    0.290202
    30  C   -0.359836
    31  C   -0.260510
    32  C   -0.298147
    33  N   -0.689625
    34  C    0.298413
    35  C    0.065981
    36  C   -0.034701
    37  C    0.254235
    38  C   -0.378718
    39  C    0.384529
    40  O   -0.434935
    41  C   -0.291795
    42  C    0.622883
    43  O   -0.476818
    44  O   -0.391089
    45  C   -0.078447
    46  C   -0.007515
    47  C   -0.138566
    48  C    0.161313
    49  C   -0.386162
    50  C   -0.238831
    51  C   -0.168468
    52  C   -0.172861
    53  C   -0.029779
    54  C   -0.303777
    55  C   -0.158941
    56  C   -0.194501
    57  C   -0.170165
    58  C   -0.061716
    59  C   -0.304876
    60  C   -0.175452
    61  C   -0.177745
    62  C   -0.172748
    63  C   -0.066445
    64  C   -0.306674
    65  C   -0.288174
    66  H    0.069687
    67  H    0.074756
    68  H    0.077058
    69  H    0.125491
    70  H    0.097628
    71  H    0.116350
    72  H    0.107254
    73  H    0.118513
    74  H    0.101917
    75  H    0.095978
    76  H    0.130705
    77  H    0.115187
    78  H    0.119282
    79  H    0.120665
    80  H    0.128397
    81  H    0.098260
    82  H    0.097176
    83  H    0.104209
    84  H    0.125827
    85  H    0.117009
    86  H    0.129797
    87  H    0.094395
    88  H    0.095063
    89  H    0.099775
    90  H    0.117263
    91  H    0.123928
    92  H    0.120735
    93  H    0.150169
    94  H    0.090443
    95  H    0.183782
    96  H    0.068671
    97  H    0.150437
    98  H    0.133858
    99  H    0.140001
   100  H    0.144303
   101  H    0.095502
   102  H    0.110904
   103  H    0.119279
   104  H    0.126331
   105  H    0.112397
   106  H    0.056543
   107  H    0.090772
   108  H    0.090845
   109  H    0.077656
   110  H    0.090090
   111  H    0.053653
   112  H    0.115859
   113  H    0.085907
   114  H    0.096644
   115  H    0.102612
   116  H    0.095662
   117  H    0.094021
   118  H    0.092527
   119  H    0.085264
   120  H    0.075696
   121  H    0.076074
   122  H    0.097277
   123  H    0.098351
   124  H    0.102902
   125  H    0.096135
   126  H    0.065838
   127  H    0.097620
   128  H    0.086640
   129  H    0.080396
   130  H    0.097685
   131  H    0.088163
   132  H    0.100002
   133  H    0.096501
   134  H    0.078021
   135  H    0.096952
   136  H    0.114456
   137  H    0.075542
 Sum of Mulliken charges =   0.00000

 Dipole moment (field-independent basis, Debye):
    X=              2.8775    Y=              2.6374    Z=              0.3915  Tot=              3.9230
 Quadrupole moment (field-independent basis, Debye-Ang):
   XX=           -339.1471   YY=           -392.8930   ZZ=           -401.1991
   XY=            -10.5467   XZ=              3.3934   YZ=             -4.9656

 Normal termination of Gaussian 09 at Thu Jun 27 18:44:07 2019.
