 Gaussian 09, Revision D.01,
 Gaussian 09:  ES64L-G09RevD.01 24-Apr-2013

 -------------------------------------
 # td=(NStates=1) CAM-B3LYP/6-31G(d,p)
 -------------------------------------

 --
 TD
 --
 Symbolic Z-matrix:
 Charge =  0 Multiplicity = 1

                         Standard orientation:
 ---------------------------------------------------------------------
 Center     Atomic      Atomic             Coordinates (Angstroms)
 Number     Number       Type             X           Y           Z
 ---------------------------------------------------------------------
      1         12           0       -7.162933    0.617575    0.191500
      2          6           0       -4.900117   -2.010477    0.442387
      3          6           0       -4.951431    2.767260    1.244569
      4          6           0       -9.467490    3.211668   -0.458643
      5          6           0       -9.532626   -1.674674   -0.877729
      6          7           0       -5.129005    0.376503    0.731891
      7          6           0       -4.297988   -0.790961    0.833902
      8          6           0       -3.006780   -0.405779    1.253730
      9          6           0       -3.081225    1.048438    1.752794
     10          6           0       -4.436080    1.446183    1.198661
     11          6           0       -3.044348    1.153257    3.248721
     12          6           0       -1.970943   -0.550912    0.128318
     13          6           0       -0.475065   -0.449720    0.481731
     14          6           0        0.438180   -0.615982   -0.686727
     15          8           0        0.214850   -1.040964   -1.754748
     16          8           0        1.761243   -0.577858   -0.219254
     17          7           0       -7.109958    2.597291    0.318303
     18          6           0       -6.112450    3.363107    0.795508
     19          6           0       -6.425994    4.749941    0.892191
     20          6           0       -7.747377    4.882823    0.396526
     21          6           0       -8.139117    3.518227    0.012310
     22          6           0       -5.592483    5.820783    1.435532
     23          6           0       -8.600632    6.064325    0.203193
     24          6           0       -8.180302    7.300918    0.043107
     25          7           0       -9.121383    0.678637   -0.563170
     26          6           0       -9.918462    1.855281   -0.751147
     27          6           0      -11.178433    1.487677   -1.124221
     28          6           0      -11.322178    0.197030   -1.157040
     29          6           0       -9.905364   -0.330826   -0.819681
     30          6           0      -12.296750    2.567122   -1.439238
     31          6           0      -12.467917   -0.726744   -1.658345
     32          6           0      -12.301583   -1.084893   -3.203544
     33          7           0       -7.305640   -1.406885   -0.007298
     34          6           0       -8.314405   -2.170248   -0.451344
     35          6           0       -7.871095   -3.600139   -0.462599
     36          6           0       -6.548892   -3.561498   -0.122429
     37          6           0       -6.174459   -2.217292    0.147089
     38          6           0       -8.669534   -4.919310   -0.929904
     39          6           0       -5.353869   -4.396563    0.151534
     40          8           0       -5.236911   -5.615683    0.161644
     41          6           0       -4.159882   -3.415731    0.382549
     42          6           0       -3.491184   -3.749814    1.805197
     43          8           0       -3.775056   -3.218335    2.854743
     44          8           0       -2.577054   -4.741865    1.724911
     45          6           0       -1.940639   -5.223919    2.894033
     46          6           0        2.853116   -0.810009   -1.073029
     47          6           0        4.131840   -0.610962   -0.426104
     48          6           0        5.048145    0.311623   -0.809888
     49          6           0        4.984188    1.256673   -2.007950
     50          6           0        6.426437    0.336240   -0.034847
     51          6           0        7.586684   -0.048914   -0.957013
     52          6           0        9.004752   -0.147391   -0.159186
     53          6           0       10.253994   -0.522661   -0.966685
     54          6           0       10.197278   -2.067106   -1.462123
     55          6           0       11.490370   -0.177777   -0.040397
     56          6           0       12.818820   -0.399729   -0.769651
     57          6           0       14.013394   -0.106823    0.152607
     58          6           0       15.455148   -0.143801   -0.581084
     59          6           0       15.703277   -1.618429   -1.158237
     60          6           0       16.480576    0.340067    0.476141
     61          6           0       17.912102    0.530282   -0.026131
     62          6           0       18.840037    1.359428    0.753537
     63          6           0       20.299394    1.423420    0.295239
     64          6           0       20.474758    2.066207   -1.048335
     65          6           0       21.190296    2.015085    1.341671
     66          1           0       -4.366786    3.564230    1.713589
     67          1           0      -10.261529    3.910235   -0.760672
     68          1           0      -10.378113   -2.469013   -1.015750
     69          1           0       -2.653997   -1.073973    2.212357
     70          1           0       -2.307919    1.841534    1.427182
     71          1           0       -1.897185    1.015752    3.667189
     72          1           0       -3.190991    2.134358    3.507947
     73          1           0       -3.677235    0.566258    3.771686
     74          1           0       -2.078754   -1.428685   -0.493870
     75          1           0       -2.116343    0.378312   -0.415949
     76          1           0       -0.316445    0.592402    0.945931
     77          1           0       -0.216533   -1.274499    1.150341
     78          1           0       -4.788848    6.207990    0.722800
     79          1           0       -6.403882    6.723227    1.803887
     80          1           0       -4.944366    5.517081    2.320334
     81          1           0       -9.771439    5.866151    0.267440
     82          1           0       -8.967588    8.094634    0.085075
     83          1           0       -7.059046    7.669423   -0.111900
     84          1           0      -11.967624    2.859499   -2.562620
     85          1           0      -13.300318    1.902165   -1.483535
     86          1           0      -12.240991    3.673902   -0.736746
     87          1           0      -12.637816   -1.664133   -0.988369
     88          1           0      -13.363570   -0.267329   -1.558660
     89          1           0      -13.371472   -1.573136   -3.610158
     90          1           0      -12.465092   -0.131070   -3.834604
     91          1           0      -11.403446   -1.679437   -3.294836
     92          1           0       -9.104609   -4.799254   -1.950193
     93          1           0       -8.046252   -5.723269   -1.103909
     94          1           0       -9.387305   -4.939069   -0.148771
     95          1           0       -3.392381   -3.519347   -0.282398
     96          1           0       -1.463668   -4.506104    3.560419
     97          1           0       -3.002832   -5.427975    3.420677
     98          1           0       -1.465822   -6.037372    2.649854
     99          1           0        2.788182   -1.819962   -1.474093
    100          1           0        2.709638   -0.266772   -1.966427
    101          1           0        4.327736   -0.991935    0.573806
    102          1           0        3.970294    1.255503   -2.471746
    103          1           0        5.509687    2.357631   -1.889105
    104          1           0        5.636759    0.978919   -2.902549
    105          1           0        6.457598    1.478107    0.264498
    106          1           0        6.362224   -0.272035    0.855407
    107          1           0        7.497185   -1.037951   -1.426074
    108          1           0        7.909879    0.593361   -2.028405
    109          1           0        9.100708    0.916723    0.369916
    110          1           0        8.737384   -0.797615    0.771107
    111          1           0       10.332130   -0.065514   -2.026092
    112          1           0        9.329836   -2.448740   -2.119257
    113          1           0       10.968931   -2.293373   -1.744152
    114          1           0       10.015640   -2.599926   -0.516171
    115          1           0       11.291927    0.781921    0.303636
    116          1           0       11.494000   -0.632821    0.834645
    117          1           0       12.994588   -1.360262   -1.085734
    118          1           0       12.751185    0.158670   -1.727573
    119          1           0       13.922995    0.844712    0.489927
    120          1           0       13.936459   -0.721914    1.061174
    121          1           0       15.585868    0.606378   -1.541899
    122          1           0       15.838709   -2.418857   -0.329175
    123          1           0       14.835931   -1.931641   -1.744205
    124          1           0       16.829160   -1.584592   -1.645715
    125          1           0       15.914329    1.242280    0.865373
    126          1           0       16.511047   -0.236314    1.342332
    127          1           0       18.267214   -0.417830   -0.355951
    128          1           0       17.745968    0.802359   -1.035009
    129          1           0       18.298025    2.416206    0.839071
    130          1           0       18.842760    1.246114    1.813565
    131          1           0       20.646290    0.394796    0.160421
    132          1           0       20.219212    3.067154   -0.917683
    133          1           0       21.546470    1.919699   -1.298390
    134          1           0       20.047248    1.677184   -2.132896
    135          1           0       21.136065    1.361544    2.164879
    136          1           0       22.052393    2.206442    0.871446
    137          1           0       20.814884    2.872895    1.531702
 ---------------------------------------------------------------------

 SCF Done:  E(RCAM-B3LYP) =  -2932.57918084     A.U. after   16 cycles

 Excitation energies and oscillator strengths:

 Excited State   1:      Singlet-A      1.9365 eV  640.26 nm  f=0.2375  <S**2>=0.000
     240 -> 243       -0.25677
     241 -> 242        0.64870
 This state for optimization and/or second-order correction.
 Total Energy, E(TD-HF/TD-KS) =  -2932.50801686
 Copying the excited state density for this state as the 1-particle RhoCI density.

 The electronic state is 1-A.
 Alpha  occ. eigenvalues --  -46.84115 -19.26354 -19.24101 -19.21958 -19.21459
 Alpha  occ. eigenvalues --  -19.20908 -14.42359 -14.39426 -14.39292 -14.39096
 Alpha  occ. eigenvalues --  -10.39976 -10.39382 -10.35791 -10.31395 -10.31158
 Alpha  occ. eigenvalues --  -10.30935 -10.30334 -10.30159 -10.29878 -10.29464
 Alpha  occ. eigenvalues --  -10.29276 -10.28798 -10.28793 -10.28782 -10.28686
 Alpha  occ. eigenvalues --  -10.28627 -10.28573 -10.28495 -10.28369 -10.28139
 Alpha  occ. eigenvalues --  -10.28090 -10.28052 -10.28040 -10.27897 -10.27747
 Alpha  occ. eigenvalues --  -10.27690 -10.27647 -10.27533 -10.27484 -10.27461
 Alpha  occ. eigenvalues --  -10.27213 -10.27136 -10.27077 -10.27060 -10.26981
 Alpha  occ. eigenvalues --  -10.26979 -10.26736 -10.26488 -10.25994 -10.25928
 Alpha  occ. eigenvalues --  -10.25639 -10.25518 -10.25450 -10.25360 -10.25327
 Alpha  occ. eigenvalues --  -10.25078 -10.24871 -10.24729 -10.24530 -10.24347
 Alpha  occ. eigenvalues --  -10.24314 -10.23772 -10.23581 -10.22962 -10.21501
 Alpha  occ. eigenvalues --   -3.13186  -1.87890  -1.87417  -1.87377  -1.18670
 Alpha  occ. eigenvalues --   -1.18415  -1.10969  -1.10037  -1.09730  -1.04441
 Alpha  occ. eigenvalues --   -1.03570  -1.03129  -1.02359  -0.93115  -0.90981
 Alpha  occ. eigenvalues --   -0.90820  -0.90119  -0.89551  -0.88909  -0.88437
 Alpha  occ. eigenvalues --   -0.88081  -0.87743  -0.87097  -0.86318  -0.85856
 Alpha  occ. eigenvalues --   -0.85054  -0.84470  -0.83661  -0.83307  -0.82236
 Alpha  occ. eigenvalues --   -0.81603  -0.81026  -0.80474  -0.79692  -0.78774
 Alpha  occ. eigenvalues --   -0.77563  -0.77095  -0.76969  -0.76592  -0.75349
 Alpha  occ. eigenvalues --   -0.75008  -0.74861  -0.74471  -0.73511  -0.72090
 Alpha  occ. eigenvalues --   -0.71904  -0.70963  -0.69710  -0.69193  -0.68362
 Alpha  occ. eigenvalues --   -0.66911  -0.66586  -0.65854  -0.65179  -0.64908
 Alpha  occ. eigenvalues --   -0.63740  -0.63679  -0.63147  -0.62878  -0.62153
 Alpha  occ. eigenvalues --   -0.61754  -0.60408  -0.59951  -0.59397  -0.58900
 Alpha  occ. eigenvalues --   -0.58298  -0.57752  -0.57722  -0.57476  -0.56988
 Alpha  occ. eigenvalues --   -0.56525  -0.55684  -0.55357  -0.54619  -0.54537
 Alpha  occ. eigenvalues --   -0.54345  -0.54098  -0.54026  -0.53845  -0.53173
 Alpha  occ. eigenvalues --   -0.53086  -0.52971  -0.52540  -0.52133  -0.51833
 Alpha  occ. eigenvalues --   -0.51702  -0.51379  -0.51288  -0.51136  -0.50824
 Alpha  occ. eigenvalues --   -0.50698  -0.50319  -0.50049  -0.49725  -0.49432
 Alpha  occ. eigenvalues --   -0.49256  -0.49110  -0.48960  -0.48555  -0.48111
 Alpha  occ. eigenvalues --   -0.47920  -0.47643  -0.47602  -0.47361  -0.46785
 Alpha  occ. eigenvalues --   -0.46734  -0.46477  -0.46337  -0.45987  -0.45878
 Alpha  occ. eigenvalues --   -0.45779  -0.45519  -0.45414  -0.45294  -0.45034
 Alpha  occ. eigenvalues --   -0.44897  -0.44694  -0.44465  -0.44382  -0.44346
 Alpha  occ. eigenvalues --   -0.44065  -0.43630  -0.43466  -0.43400  -0.43318
 Alpha  occ. eigenvalues --   -0.42902  -0.42803  -0.42596  -0.42446  -0.42351
 Alpha  occ. eigenvalues --   -0.42103  -0.42013  -0.41696  -0.41581  -0.41456
 Alpha  occ. eigenvalues --   -0.41393  -0.41068  -0.40845  -0.40695  -0.40429
 Alpha  occ. eigenvalues --   -0.40209  -0.40070  -0.39736  -0.39551  -0.39145
 Alpha  occ. eigenvalues --   -0.39001  -0.38744  -0.38568  -0.37948  -0.37894
 Alpha  occ. eigenvalues --   -0.37551  -0.37269  -0.37112  -0.36737  -0.36448
 Alpha  occ. eigenvalues --   -0.36383  -0.35907  -0.35648  -0.35469  -0.35135
 Alpha  occ. eigenvalues --   -0.35033  -0.34969  -0.34137  -0.34087  -0.33997
 Alpha  occ. eigenvalues --   -0.33467  -0.33009  -0.32376  -0.31373  -0.30516
 Alpha  occ. eigenvalues --   -0.29832  -0.29441  -0.28826  -0.27529  -0.23035
 Alpha  occ. eigenvalues --   -0.20389
 Alpha virt. eigenvalues --   -0.06180  -0.03312   0.00886   0.04200   0.05589
 Alpha virt. eigenvalues --    0.05664   0.06040   0.06233   0.06739   0.07272
 Alpha virt. eigenvalues --    0.07823   0.09355   0.10619   0.11505   0.11667

 Mulliken charges:
               1
     1  Mg   0.821013
     2  C    0.028367
     3  C   -0.217892
     4  C   -0.167292
     5  C   -0.183904
     6  N   -0.635220
     7  C    0.337815
     8  C   -0.194143
     9  C   -0.145111
    10  C    0.355831
    11  C   -0.295283
    12  C   -0.171965
    13  C   -0.267903
    14  C    0.593174
    15  O   -0.425298
    16  O   -0.507986
    17  N   -0.716808
    18  C    0.344914
    19  C    0.055574
    20  C    0.016420
    21  C    0.264352
    22  C   -0.389965
    23  C   -0.069344
    24  C   -0.252663
    25  N   -0.675792
    26  C    0.252237
    27  C    0.054308
    28  C   -0.002807
    29  C    0.301379
    30  C   -0.342602
    31  C   -0.235478
    32  C   -0.294433
    33  N   -0.731135
    34  C    0.303193
    35  C   -0.070136
    36  C    0.039217
    37  C    0.294260
    38  C   -0.344371
    39  C    0.385493
    40  O   -0.459828
    41  C   -0.284401
    42  C    0.593511
    43  O   -0.463644
    44  O   -0.453127
    45  C   -0.070154
    46  C    0.037738
    47  C   -0.136564
    48  C    0.123382
    49  C   -0.365276
    50  C   -0.215805
    51  C   -0.165207
    52  C   -0.173490
    53  C   -0.076903
    54  C   -0.284887
    55  C   -0.174831
    56  C   -0.190787
    57  C   -0.193803
    58  C   -0.063206
    59  C   -0.303211
    60  C   -0.171705
    61  C   -0.178649
    62  C   -0.160146
    63  C   -0.080479
    64  C   -0.299814
    65  C   -0.295119
    66  H    0.057034
    67  H    0.092209
    68  H    0.093774
    69  H    0.120130
    70  H    0.104440
    71  H    0.075456
    72  H    0.118291
    73  H    0.137614
    74  H    0.123993
    75  H    0.117338
    76  H    0.126190
    77  H    0.148960
    78  H    0.119779
    79  H    0.103668
    80  H    0.110600
    81  H    0.092881
    82  H    0.099644
    83  H    0.111959
    84  H    0.116092
    85  H    0.107084
    86  H    0.092837
    87  H    0.096815
    88  H    0.106444
    89  H    0.073038
    90  H    0.109871
    91  H    0.128530
    92  H    0.117937
    93  H    0.150547
    94  H    0.137166
    95  H    0.158743
    96  H    0.132219
    97  H    0.115284
    98  H    0.134059
    99  H    0.109049
   100  H    0.107338
   101  H    0.091523
   102  H    0.113669
   103  H    0.101183
   104  H    0.121272
   105  H    0.092503
   106  H    0.106163
   107  H    0.108613
   108  H    0.059010
   109  H    0.069392
   110  H    0.080877
   111  H    0.083103
   112  H    0.092282
   113  H    0.096723
   114  H    0.091520
   115  H    0.102657
   116  H    0.099820
   117  H    0.105257
   118  H    0.088406
   119  H    0.102428
   120  H    0.094801
   121  H    0.068834
   122  H    0.091646
   123  H    0.109887
   124  H    0.077517
   125  H    0.076309
   126  H    0.097333
   127  H    0.091169
   128  H    0.096259
   129  H    0.060635
   130  H    0.088872
   131  H    0.084850
   132  H    0.108324
   133  H    0.092502
   134  H    0.080647
   135  H    0.110141
   136  H    0.101820
   137  H    0.111427
 Sum of Mulliken charges =   0.00000

 Dipole moment (field-independent basis, Debye):
    X=              2.0830    Y=              3.5186    Z=              1.1475  Tot=              4.2469
 Quadrupole moment (field-independent basis, Debye-Ang):
   XX=           -347.8382   YY=           -395.4994   ZZ=           -396.9958
   XY=            -18.6510   XZ=             14.4852   YZ=             -0.2622

 Normal termination of Gaussian 09 at Sat Jun 29 04:34:21 2019.
