 Gaussian 09, Revision D.01,
 Gaussian 09:  ES64L-G09RevD.01 24-Apr-2013

 -------------------------------------
 # td=(NStates=1) CAM-B3LYP/6-31G(d,p)
 -------------------------------------

 --
 TD
 --
 Symbolic Z-matrix:
 Charge =  0 Multiplicity = 1

                         Standard orientation:
 ---------------------------------------------------------------------
 Center     Atomic      Atomic             Coordinates (Angstroms)
 Number     Number       Type             X           Y           Z
 ---------------------------------------------------------------------
      1         12           0       -7.093138    0.557827   -0.049281
      2          6           0       -4.770912   -1.987635    0.315942
      3          6           0       -4.775634    2.820150    1.157285
      4          6           0       -9.433638    3.066196   -0.257504
      5          6           0       -9.530306   -1.711272   -0.897452
      6          7           0       -5.028815    0.418992    0.734538
      7          6           0       -4.295380   -0.808081    0.719880
      8          6           0       -2.933234   -0.433525    1.224455
      9          6           0       -3.078103    1.052994    1.723424
     10          6           0       -4.393416    1.454690    1.087415
     11          6           0       -2.897515    1.078700    3.230602
     12          6           0       -1.892594   -0.509052    0.109998
     13          6           0       -0.427534   -0.429436    0.564257
     14          6           0        0.580841   -0.502727   -0.718264
     15          8           0        0.066101   -0.818864   -1.819865
     16          8           0        1.767984   -0.373707   -0.349009
     17          7           0       -7.068876    2.603853    0.298738
     18          6           0       -6.041825    3.252336    0.831973
     19          6           0       -6.370896    4.744458    0.915144
     20          6           0       -7.671881    4.851123    0.538805
     21          6           0       -8.191884    3.428833    0.171916
     22          6           0       -5.590838    5.853190    1.342351
     23          6           0       -8.635264    5.926347    0.478819
     24          6           0       -8.286925    7.265169    0.302539
     25          7           0       -9.122343    0.654286   -0.499032
     26          6           0       -9.851805    1.738314   -0.702507
     27          6           0      -11.241287    1.470771   -1.085398
     28          6           0      -11.255284    0.101119   -1.232280
     29          6           0       -9.929669   -0.432679   -0.853646
     30          6           0      -12.235175    2.577233   -1.218416
     31          6           0      -12.450165   -0.715805   -1.667083
     32          6           0      -12.359150   -0.968897   -3.201795
     33          7           0       -7.177998   -1.431170   -0.236116
     34          6           0       -8.253509   -2.230580   -0.575322
     35          6           0       -7.848029   -3.586998   -0.595130
     36          6           0       -6.518055   -3.571562   -0.211300
     37          6           0       -6.163846   -2.200851    0.040671
     38          6           0       -8.691155   -4.668232   -0.884970
     39          6           0       -5.355749   -4.449937    0.233898
     40          8           0       -5.232295   -5.627354    0.136259
     41          6           0       -4.147465   -3.493797    0.526195
     42          6           0       -3.551823   -3.762765    1.883190
     43          8           0       -3.889629   -3.030326    2.871038
     44          8           0       -2.787409   -4.839629    1.802550
     45          6           0       -2.136858   -5.243622    3.079580
     46          6           0        2.858368   -0.615056   -1.389081
     47          6           0        4.186043   -0.532888   -0.780442
     48          6           0        5.029543    0.393478   -1.011079
     49          6           0        5.083905    1.438197   -2.203085
     50          6           0        6.454586    0.560226   -0.248468
     51          6           0        7.627623   -0.049108   -1.029808
     52          6           0        8.871098   -0.061692   -0.124421
     53          6           0       10.154433   -0.589406   -0.812274
     54          6           0       10.173544   -1.985657   -1.409802
     55          6           0       11.422578   -0.216705    0.098977
     56          6           0       12.745378   -0.513231   -0.634236
     57          6           0       13.911293   -0.250868    0.365790
     58          6           0       15.282751   -0.208817   -0.428380
     59          6           0       15.619969   -1.652765   -0.933053
     60          6           0       16.431566    0.240337    0.503313
     61          6           0       17.820428    0.622109   -0.221867
     62          6           0       18.891382    1.231266    0.737585
     63          6           0       20.251116    1.256617    0.177355
     64          6           0       20.391815    2.227016   -1.012370
     65          6           0       21.192273    1.788233    1.238163
     66          1           0       -4.105368    3.471063    1.701551
     67          1           0      -10.098292    3.851270   -0.359734
     68          1           0      -10.312449   -2.485586   -1.306742
     69          1           0       -2.685589   -1.065751    1.921692
     70          1           0       -2.351562    1.661801    1.225788
     71          1           0       -1.869141    0.464498    3.500653
     72          1           0       -2.709643    2.147211    3.560471
     73          1           0       -3.732568    0.821644    3.792124
     74          1           0       -1.999375   -1.650820   -0.126901
     75          1           0       -2.154088    0.136869   -0.737918
     76          1           0       -0.254221    0.653491    1.014566
     77          1           0       -0.325257   -1.168422    1.363777
     78          1           0       -4.588285    6.093267    0.651848
     79          1           0       -6.080747    6.738655    1.715124
     80          1           0       -4.823347    5.526213    2.172090
     81          1           0       -9.530797    5.576788    0.587233
     82          1           0       -8.961193    8.066904    0.129028
     83          1           0       -7.289413    7.335363    0.085518
     84          1           0      -11.986679    3.096483   -1.983275
     85          1           0      -13.284151    2.186160   -1.216826
     86          1           0      -12.147682    3.427171   -0.417980
     87          1           0      -12.297499   -1.693309   -1.132571
     88          1           0      -13.367925   -0.007300   -1.538204
     89          1           0      -13.146369   -1.769547   -3.325887
     90          1           0      -12.718265   -0.100906   -3.593837
     91          1           0      -11.235849   -1.172509   -3.433918
     92          1           0       -9.174652   -4.646416   -1.882504
     93          1           0       -8.269831   -5.791929   -0.558864
     94          1           0       -9.563176   -4.672039   -0.184328
     95          1           0       -3.517959   -3.698069   -0.210267
     96          1           0       -1.460124   -4.481675    3.494386
     97          1           0       -2.934135   -5.569315    3.496612
     98          1           0       -1.347051   -6.093576    2.732002
     99          1           0        2.452283   -1.667451   -1.610833
    100          1           0        2.844640   -0.016074   -2.144578
    101          1           0        4.430218   -1.037897    0.089121
    102          1           0        4.137241    1.256965   -2.650776
    103          1           0        5.149711    2.406789   -1.659627
    104          1           0        5.966107    1.269251   -2.685906
    105          1           0        6.458575    1.568106   -0.034007
    106          1           0        6.574664    0.066902    0.667180
    107          1           0        7.354054   -1.056897   -1.306550
    108          1           0        8.023883    0.475535   -1.769022
    109          1           0        8.954908    0.883946    0.337571
    110          1           0        8.827315   -0.721292    0.817827
    111          1           0       10.319328    0.164094   -1.630217
    112          1           0        9.166399   -1.965570   -2.006566
    113          1           0       11.008344   -2.087608   -2.004280
    114          1           0        9.865670   -2.535294   -0.487650
    115          1           0       11.369184    0.890070    0.667630
    116          1           0       11.407051   -0.975222    1.118618
    117          1           0       12.741419   -1.477947   -1.042863
    118          1           0       12.936582    0.179181   -1.639017
    119          1           0       13.820372    0.749602    0.776078
    120          1           0       13.917880   -0.954308    1.243696
    121          1           0       15.198452    0.437349   -1.276128
    122          1           0       15.567551   -2.315588    0.001031
    123          1           0       14.968442   -2.111794   -1.570212
    124          1           0       16.535749   -1.700969   -1.383634
    125          1           0       16.229036    1.332467    0.906481
    126          1           0       16.574170   -0.464678    1.465880
    127          1           0       18.445349   -0.349670   -0.635101
    128          1           0       17.485449    1.292022   -1.125252
    129          1           0       18.552099    2.225734    1.160563
    130          1           0       18.840614    0.647375    1.682855
    131          1           0       20.692513    0.206156   -0.001209
    132          1           0       19.991168    3.186263   -0.778247
    133          1           0       21.343319    2.195910   -1.430767
    134          1           0       19.670052    1.865548   -1.866070
    135          1           0       20.987119    1.189180    2.226169
    136          1           0       22.370541    1.627029    0.872334
    137          1           0       21.008720    2.905780    1.386912
 ---------------------------------------------------------------------

 SCF Done:  E(RCAM-B3LYP) =  -2932.63399085     A.U. after   16 cycles

 Excitation energies and oscillator strengths:

 Excited State   1:      Singlet-A      2.3778 eV  521.43 nm  f=0.2370  <S**2>=0.000
     240 -> 242       -0.18381
     240 -> 243       -0.21073
     241 -> 242        0.61922
     241 -> 243       -0.16429
 This state for optimization and/or second-order correction.
 Total Energy, E(TD-HF/TD-KS) =  -2932.54660895
 Copying the excited state density for this state as the 1-particle RhoCI density.

 The electronic state is 1-A.
 Alpha  occ. eigenvalues --  -46.84410 -19.27988 -19.27662 -19.20062 -19.19504
 Alpha  occ. eigenvalues --  -19.19249 -14.40466 -14.39231 -14.39132 -14.38492
 Alpha  occ. eigenvalues --  -10.39447 -10.39028 -10.34261 -10.32809 -10.32431
 Alpha  occ. eigenvalues --  -10.30565 -10.30195 -10.30024 -10.29405 -10.28960
 Alpha  occ. eigenvalues --  -10.28644 -10.28581 -10.27911 -10.27716 -10.27614
 Alpha  occ. eigenvalues --  -10.27596 -10.27393 -10.27294 -10.27240 -10.27060
 Alpha  occ. eigenvalues --  -10.27035 -10.26963 -10.26960 -10.26833 -10.26794
 Alpha  occ. eigenvalues --  -10.26643 -10.26545 -10.26516 -10.26461 -10.26429
 Alpha  occ. eigenvalues --  -10.26313 -10.26247 -10.26115 -10.26081 -10.26070
 Alpha  occ. eigenvalues --  -10.26016 -10.25797 -10.25793 -10.25743 -10.25698
 Alpha  occ. eigenvalues --  -10.25682 -10.25649 -10.25592 -10.25532 -10.25489
 Alpha  occ. eigenvalues --  -10.25442 -10.25430 -10.25422 -10.25397 -10.25251
 Alpha  occ. eigenvalues --  -10.24626 -10.24400 -10.23994 -10.23372 -10.23206
 Alpha  occ. eigenvalues --   -3.13325  -1.88049  -1.87546  -1.87497  -1.20251
 Alpha  occ. eigenvalues --   -1.17887  -1.11691  -1.06765  -1.06603  -1.04450
 Alpha  occ. eigenvalues --   -1.03600  -1.03124  -1.02213  -0.92872  -0.90787
 Alpha  occ. eigenvalues --   -0.90595  -0.90113  -0.89660  -0.88806  -0.88646
 Alpha  occ. eigenvalues --   -0.88607  -0.88064  -0.87248  -0.86849  -0.86559
 Alpha  occ. eigenvalues --   -0.84937  -0.83899  -0.83742  -0.83000  -0.82735
 Alpha  occ. eigenvalues --   -0.82085  -0.81475  -0.80262  -0.80170  -0.78087
 Alpha  occ. eigenvalues --   -0.77995  -0.76835  -0.76725  -0.76659  -0.75717
 Alpha  occ. eigenvalues --   -0.75506  -0.74803  -0.74272  -0.73330  -0.71649
 Alpha  occ. eigenvalues --   -0.71195  -0.70290  -0.69444  -0.68559  -0.68245
 Alpha  occ. eigenvalues --   -0.66824  -0.66715  -0.65702  -0.64632  -0.64388
 Alpha  occ. eigenvalues --   -0.64058  -0.63762  -0.62788  -0.62488  -0.62230
 Alpha  occ. eigenvalues --   -0.61498  -0.60468  -0.59983  -0.59493  -0.58922
 Alpha  occ. eigenvalues --   -0.58575  -0.58308  -0.57899  -0.57603  -0.57435
 Alpha  occ. eigenvalues --   -0.56948  -0.56550  -0.55653  -0.55025  -0.54575
 Alpha  occ. eigenvalues --   -0.54454  -0.54184  -0.53954  -0.53919  -0.53587
 Alpha  occ. eigenvalues --   -0.53275  -0.53009  -0.52610  -0.52223  -0.52076
 Alpha  occ. eigenvalues --   -0.51581  -0.51230  -0.50909  -0.50504  -0.50416
 Alpha  occ. eigenvalues --   -0.50202  -0.50114  -0.49960  -0.49926  -0.49606
 Alpha  occ. eigenvalues --   -0.49457  -0.49116  -0.48716  -0.48632  -0.48385
 Alpha  occ. eigenvalues --   -0.47967  -0.47828  -0.47749  -0.47567  -0.47180
 Alpha  occ. eigenvalues --   -0.47093  -0.46982  -0.46895  -0.46413  -0.46072
 Alpha  occ. eigenvalues --   -0.45790  -0.45614  -0.45318  -0.45181  -0.44975
 Alpha  occ. eigenvalues --   -0.44794  -0.44709  -0.44630  -0.44280  -0.44216
 Alpha  occ. eigenvalues --   -0.44054  -0.43628  -0.43419  -0.43103  -0.42935
 Alpha  occ. eigenvalues --   -0.42778  -0.42643  -0.42375  -0.42228  -0.42188
 Alpha  occ. eigenvalues --   -0.42012  -0.41510  -0.41492  -0.41154  -0.41064
 Alpha  occ. eigenvalues --   -0.40996  -0.40932  -0.40797  -0.40536  -0.40425
 Alpha  occ. eigenvalues --   -0.40160  -0.40010  -0.39997  -0.39466  -0.38844
 Alpha  occ. eigenvalues --   -0.38757  -0.38708  -0.38641  -0.37959  -0.37886
 Alpha  occ. eigenvalues --   -0.37411  -0.37155  -0.36938  -0.36492  -0.36097
 Alpha  occ. eigenvalues --   -0.36036  -0.35790  -0.35752  -0.35468  -0.35104
 Alpha  occ. eigenvalues --   -0.34962  -0.34824  -0.34258  -0.33922  -0.32901
 Alpha  occ. eigenvalues --   -0.32638  -0.31850  -0.31632  -0.30847  -0.30565
 Alpha  occ. eigenvalues --   -0.28762  -0.28451  -0.27824  -0.26831  -0.23202
 Alpha  occ. eigenvalues --   -0.20878
 Alpha virt. eigenvalues --   -0.04669  -0.01794   0.02387   0.04272   0.05152
 Alpha virt. eigenvalues --    0.05571   0.05932   0.07659   0.07823   0.08015
 Alpha virt. eigenvalues --    0.09331   0.10581   0.11530   0.11759   0.11918

 Mulliken charges:
               1
     1  Mg   0.827069
     2  C    0.018972
     3  C   -0.201296
     4  C   -0.181381
     5  C   -0.180026
     6  N   -0.640238
     7  C    0.296396
     8  C   -0.155892
     9  C   -0.148357
    10  C    0.366407
    11  C   -0.292211
    12  C   -0.146551
    13  C   -0.264772
    14  C    0.596286
    15  O   -0.508755
    16  O   -0.426073
    17  N   -0.735331
    18  C    0.377064
    19  C    0.071930
    20  C   -0.010067
    21  C    0.301320
    22  C   -0.419421
    23  C   -0.046914
    24  C   -0.253343
    25  N   -0.676900
    26  C    0.285159
    27  C    0.034982
    28  C   -0.002345
    29  C    0.310644
    30  C   -0.364789
    31  C   -0.250748
    32  C   -0.294179
    33  N   -0.727966
    34  C    0.245125
    35  C    0.080669
    36  C   -0.068400
    37  C    0.312372
    38  C   -0.422440
    39  C    0.369049
    40  O   -0.434084
    41  C   -0.247458
    42  C    0.613812
    43  O   -0.512934
    44  O   -0.446951
    45  C   -0.074873
    46  C    0.013590
    47  C   -0.112798
    48  C    0.057854
    49  C   -0.339333
    50  C   -0.227141
    51  C   -0.166371
    52  C   -0.198909
    53  C   -0.082039
    54  C   -0.296553
    55  C   -0.152035
    56  C   -0.168766
    57  C   -0.169346
    58  C   -0.068418
    59  C   -0.306462
    60  C   -0.167093
    61  C   -0.167475
    62  C   -0.159416
    63  C   -0.056097
    64  C   -0.299994
    65  C   -0.279187
    66  H    0.080403
    67  H    0.066687
    68  H    0.095987
    69  H    0.100860
    70  H    0.101306
    71  H    0.092304
    72  H    0.087885
    73  H    0.136940
    74  H    0.088257
    75  H    0.113805
    76  H    0.092631
    77  H    0.118446
    78  H    0.103009
    79  H    0.138650
    80  H    0.101792
    81  H    0.080592
    82  H    0.111189
    83  H    0.111748
    84  H    0.146303
    85  H    0.108569
    86  H    0.104816
    87  H    0.105385
    88  H    0.096466
    89  H    0.102661
    90  H    0.120826
    91  H    0.109829
    92  H    0.122206
    93  H    0.119627
    94  H    0.120614
    95  H    0.161381
    96  H    0.143847
    97  H    0.159185
    98  H    0.116979
    99  H    0.132731
   100  H    0.130073
   101  H    0.090111
   102  H    0.110497
   103  H    0.120820
   104  H    0.141984
   105  H    0.105410
   106  H    0.106805
   107  H    0.109876
   108  H    0.108936
   109  H    0.105175
   110  H    0.070842
   111  H    0.074644
   112  H    0.092443
   113  H    0.125895
   114  H    0.112640
   115  H    0.072700
   116  H    0.044645
   117  H    0.112843
   118  H    0.062144
   119  H    0.095433
   120  H    0.092304
   121  H    0.088190
   122  H    0.084431
   123  H    0.102032
   124  H    0.110515
   125  H    0.072384
   126  H    0.076218
   127  H    0.066912
   128  H    0.084996
   129  H    0.081890
   130  H    0.091883
   131  H    0.085335
   132  H    0.109565
   133  H    0.111974
   134  H    0.080474
   135  H    0.083391
   136  H    0.068996
   137  H    0.094108
 Sum of Mulliken charges =   0.00000

 Dipole moment (field-independent basis, Debye):
    X=              4.7634    Y=              4.5987    Z=              0.6025  Tot=              6.6483
 Quadrupole moment (field-independent basis, Debye-Ang):
   XX=           -348.9821   YY=           -391.2873   ZZ=           -399.3986
   XY=            -26.9761   XZ=              5.3840   YZ=             -8.2554

 Normal termination of Gaussian 09 at Fri Jun 28 05:28:49 2019.
