 Gaussian 09, Revision D.01,
 Gaussian 09:  ES64L-G09RevD.01 24-Apr-2013

 -------------------------------------
 # td=(NStates=1) CAM-B3LYP/6-31G(d,p)
 -------------------------------------

 --
 TD
 --
 Symbolic Z-matrix:
 Charge =  0 Multiplicity = 1

                         Standard orientation:
 ---------------------------------------------------------------------
 Center     Atomic      Atomic             Coordinates (Angstroms)
 Number     Number       Type             X           Y           Z
 ---------------------------------------------------------------------
      1         12           0       -7.162042    0.618100    0.064279
      2          6           0       -4.894466   -1.925232    0.488284
      3          6           0       -4.820219    2.873731    1.262956
      4          6           0       -9.429230    3.206313   -0.472596
      5          6           0       -9.660383   -1.707059   -0.795787
      6          7           0       -5.186812    0.510192    0.816269
      7          6           0       -4.376063   -0.713286    0.765578
      8          6           0       -2.872716   -0.401827    1.213693
      9          6           0       -3.040777    1.007744    1.710560
     10          6           0       -4.443083    1.494950    1.266906
     11          6           0       -3.030231    1.239685    3.194075
     12          6           0       -1.974373   -0.639486    0.115772
     13          6           0       -0.410833   -0.428371    0.516735
     14          6           0        0.435757   -0.654469   -0.525027
     15          8           0        0.123614   -1.053940   -1.599032
     16          8           0        1.772864   -0.444363   -0.214799
     17          7           0       -7.045545    2.607259    0.339511
     18          6           0       -6.057995    3.360945    0.844228
     19          6           0       -6.447583    4.753480    0.841658
     20          6           0       -7.703279    4.781468    0.371102
     21          6           0       -8.126115    3.498725    0.029682
     22          6           0       -5.520581    5.840380    1.433421
     23          6           0       -8.584793    5.956153    0.358657
     24          6           0       -8.129085    7.242303   -0.023993
     25          7           0       -9.100717    0.664105   -0.514718
     26          6           0       -9.761411    1.869575   -0.671375
     27          6           0      -11.172698    1.473030   -1.091741
     28          6           0      -11.215766    0.123602   -1.223923
     29          6           0       -9.953034   -0.328714   -0.763083
     30          6           0      -12.245315    2.485451   -1.250443
     31          6           0      -12.313953   -0.692285   -1.726028
     32          6           0      -12.415283   -1.037041   -3.175884
     33          7           0       -7.245884   -1.373486   -0.168712
     34          6           0       -8.315130   -2.207106   -0.585422
     35          6           0       -7.855336   -3.585602   -0.554619
     36          6           0       -6.540279   -3.580945   -0.168426
     37          6           0       -6.195193   -2.215775    0.043184
     38          6           0       -8.668513   -4.733204   -0.928726
     39          6           0       -5.346035   -4.295701    0.181775
     40          8           0       -5.173362   -5.586777    0.217482
     41          6           0       -4.235279   -3.323278    0.529285
     42          6           0       -3.615243   -3.725763    1.923923
     43          8           0       -3.786552   -3.269564    2.971821
     44          8           0       -2.735945   -4.759962    1.665652
     45          6           0       -2.037885   -5.296225    2.876200
     46          6           0        2.715823   -0.522411   -1.275344
     47          6           0        4.070451   -0.524716   -0.645576
     48          6           0        5.079828    0.265269   -0.858787
     49          6           0        5.097492    1.229510   -2.032694
     50          6           0        6.465099    0.273420   -0.207026
     51          6           0        7.587484   -0.284485   -1.027965
     52          6           0        8.889577   -0.362046   -0.215144
     53          6           0       10.264316   -0.607073   -0.943750
     54          6           0       10.184459   -2.009868   -1.520470
     55          6           0       11.325776   -0.485165    0.032509
     56          6           0       12.753203   -0.620534   -0.708091
     57          6           0       13.957849   -0.114859    0.088740
     58          6           0       15.421348   -0.283504   -0.483627
     59          6           0       15.793754   -1.645996   -1.055290
     60          6           0       16.491666    0.394932    0.488390
     61          6           0       17.894800    0.688428   -0.197833
     62          6           0       18.820895    1.287641    0.761009
     63          6           0       20.242585    1.525049    0.250516
     64          6           0       20.244418    2.422011   -0.892107
     65          6           0       21.323635    1.916099    1.311657
     66          1           0       -4.016477    3.568179    1.619135
     67          1           0      -10.109903    3.938813   -0.861194
     68          1           0      -10.342426   -2.536751   -1.064614
     69          1           0       -2.884365   -1.163345    2.064910
     70          1           0       -2.350092    1.729221    1.196414
     71          1           0       -2.224646    0.553472    3.676970
     72          1           0       -2.880724    2.358495    3.447266
     73          1           0       -4.010258    1.045483    3.782420
     74          1           0       -2.042080   -1.503084   -0.485931
     75          1           0       -2.145406    0.196873   -0.546317
     76          1           0       -0.354670    0.540592    1.042870
     77          1           0       -0.235882   -1.032219    1.337398
     78          1           0       -4.936737    6.420879    0.747687
     79          1           0       -6.029571    6.725317    1.694948
     80          1           0       -4.917140    5.635196    2.343443
     81          1           0       -9.619322    5.944268    0.444865
     82          1           0       -8.746608    8.272903   -0.176765
     83          1           0       -7.097810    7.357517   -0.196967
     84          1           0      -12.232669    3.156101   -2.214646
     85          1           0      -13.349348    2.090248   -1.202568
     86          1           0      -12.370913    3.175508   -0.318403
     87          1           0      -12.249477   -1.529792   -1.081247
     88          1           0      -13.164981   -0.147528   -1.388566
     89          1           0      -13.374413   -1.316519   -3.745300
     90          1           0      -12.111045   -0.052690   -3.637885
     91          1           0      -11.562063   -1.664883   -3.527515
     92          1           0       -9.186490   -4.547067   -2.013404
     93          1           0       -8.094840   -5.656028   -0.843839
     94          1           0       -9.419164   -4.953448   -0.271639
     95          1           0       -3.315039   -3.427833   -0.337676
     96          1           0       -1.492021   -4.505823    3.698895
     97          1           0       -2.842389   -5.988087    3.424548
     98          1           0       -1.409768   -6.204468    2.396253
     99          1           0        2.602542   -1.529468   -1.737027
    100          1           0        2.644929    0.381767   -1.788311
    101          1           0        4.365108   -1.459994    0.197107
    102          1           0        4.059898    1.457751   -2.407860
    103          1           0        5.719351    2.165304   -1.845937
    104          1           0        5.651990    0.747110   -2.677600
    105          1           0        6.990236    1.280680    0.058505
    106          1           0        6.581817   -0.397639    0.696765
    107          1           0        7.379875   -1.308472   -1.570863
    108          1           0        7.973820    0.279223   -1.761446
    109          1           0        9.024776    0.671883    0.343586
    110          1           0        8.654542   -0.856595    0.594164
    111          1           0       10.452018    0.058323   -1.593422
    112          1           0        9.421714   -1.962851   -2.544057
    113          1           0       11.191619   -2.273328   -2.003786
    114          1           0        9.878813   -2.884365   -1.012131
    115          1           0       11.340485    0.272626    0.609949
    116          1           0       11.332476   -1.309869    0.854731
    117          1           0       12.933392   -1.701653   -0.960339
    118          1           0       12.605158   -0.044499   -1.710168
    119          1           0       13.871183    1.134477    0.343383
    120          1           0       13.847546   -0.562987    1.190847
    121          1           0       15.189383    0.488485   -1.269149
    122          1           0       15.901710   -2.398967   -0.161204
    123          1           0       15.006452   -1.978076   -1.753777
    124          1           0       16.814268   -1.592785   -1.362621
    125          1           0       16.062293    1.308271    0.909153
    126          1           0       16.552411   -0.213098    1.260859
    127          1           0       18.263010   -0.185767   -0.413193
    128          1           0       17.719971    1.205848   -1.232481
    129          1           0       18.381882    2.234659    0.960321
    130          1           0       18.778919    0.567815    1.690603
    131          1           0       20.692374    0.558506   -0.070029
    132          1           0       20.106558    3.504647   -0.405285
    133          1           0       21.263657    2.513709   -1.444057
    134          1           0       19.590588    2.234524   -1.725332
    135          1           0       21.442058    1.262761    2.170731
    136          1           0       22.281021    2.057928    1.051935
    137          1           0       21.028813    2.890569    1.828783
 ---------------------------------------------------------------------

 SCF Done:  E(RCAM-B3LYP) =  -2932.61759229     A.U. after   18 cycles

 Excitation energies and oscillator strengths:

 Excited State   1:      Singlet-A      1.9741 eV  628.06 nm  f=0.3071  <S**2>=0.000
     240 -> 243       -0.20776
     241 -> 242        0.67242
 This state for optimization and/or second-order correction.
 Total Energy, E(TD-HF/TD-KS) =  -2932.54504608
 Copying the excited state density for this state as the 1-particle RhoCI density.

 The electronic state is 1-A.
 Alpha  occ. eigenvalues --  -46.83488 -19.25481 -19.24342 -19.22182 -19.20724
 Alpha  occ. eigenvalues --  -19.18704 -14.42113 -14.39892 -14.39564 -14.39443
 Alpha  occ. eigenvalues --  -10.39423 -10.38245 -10.34617 -10.34260 -10.31556
 Alpha  occ. eigenvalues --  -10.31260 -10.31057 -10.30377 -10.30258 -10.30055
 Alpha  occ. eigenvalues --  -10.29949 -10.29121 -10.28782 -10.28681 -10.28665
 Alpha  occ. eigenvalues --  -10.28406 -10.28192 -10.27992 -10.27916 -10.27890
 Alpha  occ. eigenvalues --  -10.27775 -10.27773 -10.27745 -10.27643 -10.27406
 Alpha  occ. eigenvalues --  -10.27188 -10.27005 -10.26982 -10.26851 -10.26644
 Alpha  occ. eigenvalues --  -10.26641 -10.26541 -10.26527 -10.26477 -10.26398
 Alpha  occ. eigenvalues --  -10.26161 -10.26155 -10.26101 -10.26064 -10.25997
 Alpha  occ. eigenvalues --  -10.25517 -10.25413 -10.25347 -10.25232 -10.25203
 Alpha  occ. eigenvalues --  -10.25114 -10.24995 -10.24963 -10.24928 -10.24703
 Alpha  occ. eigenvalues --  -10.24618 -10.24275 -10.24214 -10.24201 -10.23818
 Alpha  occ. eigenvalues --   -3.12724  -1.87424  -1.86998  -1.86881  -1.18758
 Alpha  occ. eigenvalues --   -1.17948  -1.09625  -1.09545  -1.05635  -1.04463
 Alpha  occ. eigenvalues --   -1.03721  -1.03158  -1.02110  -0.92668  -0.92169
 Alpha  occ. eigenvalues --   -0.91698  -0.90796  -0.90604  -0.90047  -0.89581
 Alpha  occ. eigenvalues --   -0.88361  -0.88063  -0.87924  -0.87497  -0.86675
 Alpha  occ. eigenvalues --   -0.85854  -0.84458  -0.83653  -0.83072  -0.82475
 Alpha  occ. eigenvalues --   -0.82026  -0.81190  -0.80307  -0.79871  -0.79313
 Alpha  occ. eigenvalues --   -0.78598  -0.77217  -0.76308  -0.75722  -0.75426
 Alpha  occ. eigenvalues --   -0.75388  -0.74913  -0.74398  -0.73450  -0.72877
 Alpha  occ. eigenvalues --   -0.71443  -0.71035  -0.70378  -0.69572  -0.68244
 Alpha  occ. eigenvalues --   -0.67232  -0.67140  -0.66504  -0.65491  -0.65354
 Alpha  occ. eigenvalues --   -0.65222  -0.63739  -0.63145  -0.63086  -0.61476
 Alpha  occ. eigenvalues --   -0.60902  -0.60866  -0.60512  -0.59789  -0.59121
 Alpha  occ. eigenvalues --   -0.59002  -0.58848  -0.57899  -0.57668  -0.57048
 Alpha  occ. eigenvalues --   -0.56424  -0.55501  -0.55400  -0.55110  -0.54764
 Alpha  occ. eigenvalues --   -0.54468  -0.54419  -0.53804  -0.53540  -0.52920
 Alpha  occ. eigenvalues --   -0.52799  -0.52676  -0.52531  -0.52202  -0.51740
 Alpha  occ. eigenvalues --   -0.51368  -0.51212  -0.50986  -0.50740  -0.50724
 Alpha  occ. eigenvalues --   -0.50604  -0.50506  -0.49899  -0.49716  -0.49634
 Alpha  occ. eigenvalues --   -0.49415  -0.49134  -0.48930  -0.48707  -0.48273
 Alpha  occ. eigenvalues --   -0.48189  -0.48000  -0.47942  -0.47690  -0.47484
 Alpha  occ. eigenvalues --   -0.47100  -0.46990  -0.46313  -0.46177  -0.46003
 Alpha  occ. eigenvalues --   -0.45931  -0.45567  -0.45446  -0.45254  -0.45095
 Alpha  occ. eigenvalues --   -0.44745  -0.44597  -0.44452  -0.44243  -0.43989
 Alpha  occ. eigenvalues --   -0.43918  -0.43815  -0.43518  -0.43156  -0.42961
 Alpha  occ. eigenvalues --   -0.42944  -0.42508  -0.42362  -0.42347  -0.42243
 Alpha  occ. eigenvalues --   -0.42037  -0.41715  -0.41609  -0.41509  -0.41467
 Alpha  occ. eigenvalues --   -0.41324  -0.41177  -0.40928  -0.40915  -0.40292
 Alpha  occ. eigenvalues --   -0.39949  -0.39855  -0.39808  -0.39598  -0.39183
 Alpha  occ. eigenvalues --   -0.38895  -0.38570  -0.38526  -0.38245  -0.37975
 Alpha  occ. eigenvalues --   -0.37576  -0.37556  -0.37449  -0.36608  -0.36502
 Alpha  occ. eigenvalues --   -0.36114  -0.35612  -0.35511  -0.35456  -0.35308
 Alpha  occ. eigenvalues --   -0.35303  -0.34952  -0.34715  -0.34305  -0.34071
 Alpha  occ. eigenvalues --   -0.33323  -0.33262  -0.32215  -0.30927  -0.30183
 Alpha  occ. eigenvalues --   -0.29447  -0.29342  -0.28625  -0.27970  -0.23922
 Alpha  occ. eigenvalues --   -0.21126
 Alpha virt. eigenvalues --   -0.07094  -0.02894   0.00851   0.03500   0.05649
 Alpha virt. eigenvalues --    0.06040   0.06286   0.06943   0.07345   0.07426
 Alpha virt. eigenvalues --    0.08019   0.10395   0.10988   0.11639   0.11888

 Mulliken charges:
               1
     1  Mg   0.811831
     2  C    0.118683
     3  C   -0.212572
     4  C   -0.161496
     5  C   -0.163080
     6  N   -0.610674
     7  C    0.182335
     8  C   -0.131834
     9  C   -0.148865
    10  C    0.355592
    11  C   -0.308057
    12  C   -0.171692
    13  C   -0.309055
    14  C    0.644657
    15  O   -0.464114
    16  O   -0.516928
    17  N   -0.738637
    18  C    0.346232
    19  C    0.043051
    20  C    0.001487
    21  C    0.296465
    22  C   -0.392089
    23  C   -0.095929
    24  C   -0.242566
    25  N   -0.714492
    26  C    0.313398
    27  C    0.011942
    28  C    0.035622
    29  C    0.306109
    30  C   -0.404223
    31  C   -0.219614
    32  C   -0.314333
    33  N   -0.719790
    34  C    0.249003
    35  C   -0.017493
    36  C    0.119722
    37  C    0.237011
    38  C   -0.388569
    39  C    0.341934
    40  O   -0.518779
    41  C   -0.312167
    42  C    0.623945
    43  O   -0.422164
    44  O   -0.460590
    45  C   -0.087584
    46  C    0.052212
    47  C   -0.146763
    48  C    0.140368
    49  C   -0.365728
    50  C   -0.227380
    51  C   -0.173404
    52  C   -0.195339
    53  C   -0.025264
    54  C   -0.299886
    55  C   -0.153652
    56  C   -0.190806
    57  C   -0.170418
    58  C   -0.056345
    59  C   -0.311004
    60  C   -0.188534
    61  C   -0.174102
    62  C   -0.159553
    63  C   -0.050302
    64  C   -0.295834
    65  C   -0.321676
    66  H    0.086967
    67  H    0.121673
    68  H    0.112851
    69  H    0.132322
    70  H    0.110379
    71  H    0.101761
    72  H    0.104790
    73  H    0.125490
    74  H    0.138834
    75  H    0.118772
    76  H    0.141170
    77  H    0.158699
    78  H    0.125442
    79  H    0.123573
    80  H    0.120787
    81  H    0.100263
    82  H    0.103214
    83  H    0.101350
    84  H    0.112598
    85  H    0.103863
    86  H    0.111234
    87  H    0.103571
    88  H    0.107237
    89  H    0.111731
    90  H    0.104615
    91  H    0.106934
    92  H    0.102409
    93  H    0.147614
    94  H    0.136904
    95  H    0.155939
    96  H    0.122409
    97  H    0.124332
    98  H    0.125247
    99  H    0.132727
   100  H    0.109319
   101  H    0.056464
   102  H    0.100385
   103  H    0.099811
   104  H    0.149188
   105  H    0.100277
   106  H    0.093376
   107  H    0.082529
   108  H    0.105688
   109  H    0.050564
   110  H    0.103259
   111  H    0.096118
   112  H    0.055777
   113  H    0.090379
   114  H    0.123673
   115  H    0.102204
   116  H    0.074918
   117  H    0.102620
   118  H    0.074985
   119  H    0.046906
   120  H    0.060778
   121  H    0.085710
   122  H    0.083245
   123  H    0.112020
   124  H    0.116202
   125  H    0.088515
   126  H    0.103110
   127  H    0.105811
   128  H    0.082017
   129  H    0.095100
   130  H    0.079076
   131  H    0.081094
   132  H    0.079417
   133  H    0.086841
   134  H    0.111701
   135  H    0.098718
   136  H    0.115279
   137  H    0.080995
 Sum of Mulliken charges =   0.00000

 Dipole moment (field-independent basis, Debye):
    X=              1.3501    Y=              5.6254    Z=              0.4634  Tot=              5.8037
 Quadrupole moment (field-independent basis, Debye-Ang):
   XX=           -330.1390   YY=           -395.7092   ZZ=           -397.7476
   XY=            -35.6923   XZ=              8.6829   YZ=             -3.4223

 Normal termination of Gaussian 09 at Thu Jun 27 18:29:10 2019.
