 Gaussian 09, Revision D.01,
 Gaussian 09:  ES64L-G09RevD.01 24-Apr-2013

 -------------------------------------
 # td=(NStates=1) CAM-B3LYP/6-31G(d,p)
 -------------------------------------

 --
 TD
 --
 Symbolic Z-matrix:
 Charge =  0 Multiplicity = 1

                         Standard orientation:
 ---------------------------------------------------------------------
 Center     Atomic      Atomic             Coordinates (Angstroms)
 Number     Number       Type             X           Y           Z
 ---------------------------------------------------------------------
      1         12           0       -7.136335    0.547331    0.149469
      2          6           0       -4.895348   -1.921850    0.587789
      3          6           0       -4.727425    2.833527    1.209839
      4          6           0       -9.362324    3.070306   -0.329197
      5          6           0       -9.521790   -1.725569   -1.114770
      6          7           0       -5.127365    0.398885    0.785765
      7          6           0       -4.384597   -0.735778    0.886101
      8          6           0       -2.933207   -0.398759    1.212198
      9          6           0       -3.025897    1.023545    1.871209
     10          6           0       -4.420206    1.477590    1.280610
     11          6           0       -3.010829    1.168724    3.303000
     12          6           0       -1.907330   -0.627508    0.131825
     13          6           0       -0.457042   -0.415817    0.684132
     14          6           0        0.415317   -0.562019   -0.507062
     15          8           0        0.233401   -0.797507   -1.662275
     16          8           0        1.781187   -0.360165   -0.181327
     17          7           0       -7.099033    2.616995    0.249227
     18          6           0       -6.058659    3.290316    0.826097
     19          6           0       -6.415873    4.703490    0.871392
     20          6           0       -7.731630    4.806913    0.508904
     21          6           0       -8.184615    3.398244    0.152201
     22          6           0       -5.547464    5.826062    1.518608
     23          6           0       -8.561946    6.014412    0.329904
     24          6           0       -8.140593    7.274603    0.027150
     25          7           0       -9.084552    0.637044   -0.606193
     26          6           0       -9.849151    1.855546   -0.676979
     27          6           0      -11.208239    1.582371   -1.160709
     28          6           0      -11.235080    0.263335   -1.488973
     29          6           0       -9.879733   -0.429941   -1.000636
     30          6           0      -12.112802    2.613261   -1.616130
     31          6           0      -12.359837   -0.539093   -1.834250
     32          6           0      -12.228032   -1.177588   -3.297231
     33          7           0       -7.342032   -1.484785   -0.084206
     34          6           0       -8.418625   -2.306007   -0.556329
     35          6           0       -7.879663   -3.662827   -0.528014
     36          6           0       -6.547142   -3.536676   -0.180950
     37          6           0       -6.266585   -2.322397    0.159553
     38          6           0       -8.630456   -4.936022   -0.828903
     39          6           0       -5.299703   -4.271778    0.217236
     40          8           0       -5.237046   -5.576921    0.020172
     41          6           0       -4.280774   -3.259310    0.550557
     42          6           0       -3.599294   -3.611312    1.844084
     43          8           0       -3.955278   -3.145261    3.034928
     44          8           0       -2.830700   -4.626750    1.740739
     45          6           0       -2.215459   -5.152366    2.913811
     46          6           0        2.818180   -0.678582   -1.222766
     47          6           0        4.109326   -0.480863   -0.495584
     48          6           0        5.085497    0.438654   -0.859446
     49          6           0        5.133473    1.268112   -2.133597
     50          6           0        6.425625    0.425785   -0.145865
     51          6           0        7.644155   -0.127997   -0.959653
     52          6           0        8.948593   -0.175525   -0.134103
     53          6           0       10.313626   -0.552031   -0.940120
     54          6           0       10.109237   -1.976602   -1.368743
     55          6           0       11.501840   -0.362871    0.020978
     56          6           0       12.807672   -0.560069   -0.653203
     57          6           0       13.963115   -0.195636    0.162077
     58          6           0       15.346933   -0.265167   -0.538150
     59          6           0       15.701065   -1.736046   -0.872447
     60          6           0       16.352968    0.328261    0.380902
     61          6           0       17.778112    0.511421   -0.268691
     62          6           0       18.792120    1.256372    0.683094
     63          6           0       20.355987    1.330400    0.205218
     64          6           0       20.419983    2.096387   -1.138503
     65          6           0       21.149066    2.118811    1.272373
     66          1           0       -4.053618    3.710072    1.808825
     67          1           0      -10.210436    3.731131   -0.375250
     68          1           0      -10.332492   -2.322171   -1.592762
     69          1           0       -2.976199   -1.241809    2.051905
     70          1           0       -2.074303    1.676090    1.511407
     71          1           0       -2.031612    0.748076    3.778815
     72          1           0       -2.847839    2.204935    3.567309
     73          1           0       -3.931155    0.737867    3.875991
     74          1           0       -2.037800   -1.797229   -0.201032
     75          1           0       -2.225104    0.113586   -0.638778
     76          1           0       -0.568222    0.727289    0.994436
     77          1           0       -0.144146   -1.095080    1.474349
     78          1           0       -4.946032    6.213530    0.713078
     79          1           0       -6.212370    6.688368    1.860045
     80          1           0       -4.922703    5.540885    2.283808
     81          1           0       -9.510974    5.869915    0.866416
     82          1           0       -8.688771    7.943841   -0.007534
     83          1           0       -7.131041    7.492452   -0.383689
     84          1           0      -11.723796    3.251891   -2.247139
     85          1           0      -12.959853    2.143133   -2.302699
     86          1           0      -12.297273    3.089804   -0.679376
     87          1           0      -12.453157   -1.226933   -0.984919
     88          1           0      -13.348750    0.036837   -1.876072
     89          1           0      -13.152307   -1.735472   -3.373059
     90          1           0      -11.959537   -0.130416   -3.940195
     91          1           0      -11.341847   -1.888343   -3.406361
     92          1           0       -8.865297   -5.040303   -1.914869
     93          1           0       -7.958855   -5.900268   -0.716203
     94          1           0       -9.574770   -5.080993   -0.214075
     95          1           0       -3.429587   -3.306670   -0.250194
     96          1           0       -1.607693   -4.519905    3.552839
     97          1           0       -2.973620   -5.506313    3.670398
     98          1           0       -1.584165   -6.135886    2.586558
     99          1           0        2.631415   -1.680799   -1.666030
    100          1           0        2.621008   -0.086098   -1.983897
    101          1           0        4.242475   -1.078442    0.418660
    102          1           0        4.239192    1.107622   -2.582250
    103          1           0        5.494644    2.388892   -1.872266
    104          1           0        5.835968    1.021118   -2.998678
    105          1           0        6.608213    1.440605    0.267083
    106          1           0        6.250857   -0.311415    0.802043
    107          1           0        7.403764   -1.099845   -1.427655
    108          1           0        7.782889    0.765442   -1.692882
    109          1           0        9.061355    0.739001    0.455226
    110          1           0        8.873592   -1.006425    0.701910
    111          1           0       10.458619    0.099954   -1.827415
    112          1           0        9.216695   -2.269199   -1.980245
    113          1           0       11.079299   -2.541276   -1.823287
    114          1           0       10.231572   -2.603813   -0.426178
    115          1           0       11.511032    0.626239    0.525667
    116          1           0       11.350679   -1.133949    0.702635
    117          1           0       12.778994   -1.579279   -0.902538
    118          1           0       12.796441   -0.037329   -1.743804
    119          1           0       13.755457    0.767697    0.513016
    120          1           0       14.017333   -0.772790    1.054877
    121          1           0       15.183136    0.288327   -1.498518
    122          1           0       15.987708   -2.315533   -0.034673
    123          1           0       14.945012   -2.110618   -1.598068
    124          1           0       16.713009   -1.821641   -1.352532
    125          1           0       16.044187    1.259797    0.796155
    126          1           0       16.469313   -0.581746    1.120217
    127          1           0       17.927128   -0.430607   -0.603567
    128          1           0       17.816701    1.208173   -1.266220
    129          1           0       18.621208    2.408571    0.636132
    130          1           0       18.748961    0.967913    1.919738
    131          1           0       20.843905    0.281844   -0.068594
    132          1           0       20.105012    3.177226   -0.938431
    133          1           0       21.613962    2.001917   -1.439474
    134          1           0       19.954420    1.613623   -2.078485
    135          1           0       21.135079    1.588878    2.367382
    136          1           0       22.142923    2.428763    0.923714
    137          1           0       20.609318    2.960522    1.526564
 ---------------------------------------------------------------------

 SCF Done:  E(RCAM-B3LYP) =  -2932.57722250     A.U. after   18 cycles

 Excitation energies and oscillator strengths:

 Excited State   1:      Singlet-A      1.9845 eV  624.75 nm  f=0.3162  <S**2>=0.000
     240 -> 243        0.18764
     241 -> 242        0.67305
 This state for optimization and/or second-order correction.
 Total Energy, E(TD-HF/TD-KS) =  -2932.50429249
 Copying the excited state density for this state as the 1-particle RhoCI density.

 The electronic state is 1-A.
 Alpha  occ. eigenvalues --  -46.84328 -19.29154 -19.22915 -19.21084 -19.19903
 Alpha  occ. eigenvalues --  -19.19547 -14.41784 -14.40153 -14.39888 -14.37978
 Alpha  occ. eigenvalues --  -10.40263 -10.38864 -10.35428 -10.33332 -10.31960
 Alpha  occ. eigenvalues --  -10.31372 -10.30245 -10.29944 -10.29824 -10.29781
 Alpha  occ. eigenvalues --  -10.29680 -10.29634 -10.29213 -10.29128 -10.29008
 Alpha  occ. eigenvalues --  -10.28503 -10.28332 -10.28125 -10.28001 -10.27867
 Alpha  occ. eigenvalues --  -10.27811 -10.27656 -10.27601 -10.27592 -10.27526
 Alpha  occ. eigenvalues --  -10.27505 -10.27394 -10.27381 -10.26836 -10.26712
 Alpha  occ. eigenvalues --  -10.26682 -10.26678 -10.26576 -10.26573 -10.26546
 Alpha  occ. eigenvalues --  -10.26541 -10.26482 -10.26340 -10.26202 -10.26188
 Alpha  occ. eigenvalues --  -10.26131 -10.26128 -10.26069 -10.26026 -10.25771
 Alpha  occ. eigenvalues --  -10.25650 -10.25571 -10.25249 -10.25231 -10.25100
 Alpha  occ. eigenvalues --  -10.24614 -10.24316 -10.24205 -10.23597 -10.23325
 Alpha  occ. eigenvalues --   -3.13230  -1.87956  -1.87466  -1.87388  -1.21299
 Alpha  occ. eigenvalues --   -1.16379  -1.06362  -1.05608  -1.04623  -1.04242
 Alpha  occ. eigenvalues --   -1.03526  -1.01960  -1.00411  -0.93885  -0.91513
 Alpha  occ. eigenvalues --   -0.90574  -0.90200  -0.89863  -0.89624  -0.89031
 Alpha  occ. eigenvalues --   -0.88964  -0.88246  -0.87192  -0.86694  -0.85521
 Alpha  occ. eigenvalues --   -0.85216  -0.84991  -0.84363  -0.83672  -0.82993
 Alpha  occ. eigenvalues --   -0.82667  -0.81350  -0.80585  -0.79730  -0.78547
 Alpha  occ. eigenvalues --   -0.78200  -0.77366  -0.76853  -0.75788  -0.75558
 Alpha  occ. eigenvalues --   -0.75216  -0.74634  -0.73615  -0.72935  -0.71986
 Alpha  occ. eigenvalues --   -0.71536  -0.70451  -0.69410  -0.69300  -0.68601
 Alpha  occ. eigenvalues --   -0.68222  -0.66162  -0.65559  -0.65085  -0.64218
 Alpha  occ. eigenvalues --   -0.64049  -0.63293  -0.62780  -0.62338  -0.61870
 Alpha  occ. eigenvalues --   -0.61278  -0.60407  -0.60138  -0.59954  -0.58970
 Alpha  occ. eigenvalues --   -0.58396  -0.58202  -0.57647  -0.57443  -0.56868
 Alpha  occ. eigenvalues --   -0.55938  -0.55842  -0.55685  -0.55444  -0.54911
 Alpha  occ. eigenvalues --   -0.54425  -0.54301  -0.53957  -0.53857  -0.53524
 Alpha  occ. eigenvalues --   -0.53338  -0.53111  -0.52546  -0.52211  -0.51791
 Alpha  occ. eigenvalues --   -0.51493  -0.50874  -0.50777  -0.50648  -0.50426
 Alpha  occ. eigenvalues --   -0.50051  -0.49948  -0.49730  -0.49501  -0.49471
 Alpha  occ. eigenvalues --   -0.49328  -0.48981  -0.48879  -0.48689  -0.48419
 Alpha  occ. eigenvalues --   -0.48223  -0.47766  -0.47310  -0.47094  -0.46966
 Alpha  occ. eigenvalues --   -0.46617  -0.46214  -0.46088  -0.45943  -0.45800
 Alpha  occ. eigenvalues --   -0.45497  -0.45358  -0.45264  -0.44987  -0.44718
 Alpha  occ. eigenvalues --   -0.44587  -0.44555  -0.44423  -0.44164  -0.43697
 Alpha  occ. eigenvalues --   -0.43606  -0.43427  -0.43022  -0.42842  -0.42782
 Alpha  occ. eigenvalues --   -0.42384  -0.42306  -0.42224  -0.42150  -0.41941
 Alpha  occ. eigenvalues --   -0.41784  -0.41453  -0.41323  -0.40991  -0.40927
 Alpha  occ. eigenvalues --   -0.40871  -0.40736  -0.40586  -0.40229  -0.40041
 Alpha  occ. eigenvalues --   -0.39944  -0.39919  -0.39232  -0.39196  -0.39008
 Alpha  occ. eigenvalues --   -0.38890  -0.38640  -0.38186  -0.38058  -0.37640
 Alpha  occ. eigenvalues --   -0.37464  -0.37103  -0.37060  -0.36833  -0.36407
 Alpha  occ. eigenvalues --   -0.36227  -0.36064  -0.35913  -0.35103  -0.34951
 Alpha  occ. eigenvalues --   -0.34539  -0.34332  -0.34237  -0.33255  -0.32950
 Alpha  occ. eigenvalues --   -0.32848  -0.32516  -0.32337  -0.31269  -0.29317
 Alpha  occ. eigenvalues --   -0.28990  -0.28635  -0.28162  -0.27720  -0.23710
 Alpha  occ. eigenvalues --   -0.21396
 Alpha virt. eigenvalues --   -0.07350  -0.02444   0.01033   0.03076   0.04505
 Alpha virt. eigenvalues --    0.04939   0.05503   0.05953   0.06617   0.06840
 Alpha virt. eigenvalues --    0.07792   0.09394   0.10249   0.10746   0.11335

 Mulliken charges:
               1
     1  Mg   0.803959
     2  C    0.127210
     3  C   -0.201832
     4  C   -0.163620
     5  C   -0.160908
     6  N   -0.645169
     7  C    0.285823
     8  C   -0.166353
     9  C   -0.135863
    10  C    0.331893
    11  C   -0.295553
    12  C   -0.157387
    13  C   -0.256188
    14  C    0.615857
    15  O   -0.454343
    16  O   -0.542181
    17  N   -0.711565
    18  C    0.311582
    19  C   -0.010681
    20  C   -0.010848
    21  C    0.349325
    22  C   -0.365448
    23  C   -0.102672
    24  C   -0.182861
    25  N   -0.673912
    26  C    0.281658
    27  C    0.003111
    28  C    0.035197
    29  C    0.290793
    30  C   -0.348561
    31  C   -0.276382
    32  C   -0.296866
    33  N   -0.742113
    34  C    0.271102
    35  C   -0.027220
    36  C    0.034643
    37  C    0.289166
    38  C   -0.393118
    39  C    0.393894
    40  O   -0.514052
    41  C   -0.336065
    42  C    0.595990
    43  O   -0.536852
    44  O   -0.375844
    45  C   -0.097425
    46  C    0.028908
    47  C   -0.120814
    48  C    0.107432
    49  C   -0.347937
    50  C   -0.221771
    51  C   -0.162168
    52  C   -0.165632
    53  C   -0.061761
    54  C   -0.308845
    55  C   -0.172773
    56  C   -0.168222
    57  C   -0.159901
    58  C   -0.061336
    59  C   -0.327342
    60  C   -0.169433
    61  C   -0.158826
    62  C   -0.155136
    63  C   -0.055413
    64  C   -0.291468
    65  C   -0.298794
    66  H    0.089398
    67  H    0.078777
    68  H    0.098106
    69  H    0.124103
    70  H    0.080145
    71  H    0.097171
    72  H    0.112995
    73  H    0.123013
    74  H    0.094096
    75  H    0.133117
    76  H    0.138256
    77  H    0.156667
    78  H    0.128070
    79  H    0.119361
    80  H    0.121671
    81  H    0.101081
    82  H    0.080445
    83  H    0.103685
    84  H    0.144622
    85  H    0.101703
    86  H    0.123929
    87  H    0.121092
    88  H    0.097414
    89  H    0.117858
    90  H    0.091843
    91  H    0.110337
    92  H    0.118865
    93  H    0.141784
    94  H    0.117769
    95  H    0.170903
    96  H    0.141451
    97  H    0.143933
    98  H    0.116397
    99  H    0.117270
   100  H    0.126253
   101  H    0.100367
   102  H    0.114208
   103  H    0.096904
   104  H    0.119147
   105  H    0.097966
   106  H    0.065267
   107  H    0.104259
   108  H    0.087520
   109  H    0.088910
   110  H    0.071152
   111  H    0.084207
   112  H    0.113178
   113  H    0.074793
   114  H    0.094335
   115  H    0.084773
   116  H    0.098606
   117  H    0.098407
   118  H    0.059729
   119  H    0.089549
   120  H    0.089250
   121  H    0.079189
   122  H    0.108736
   123  H    0.109248
   124  H    0.093893
   125  H    0.094982
   126  H    0.077619
   127  H    0.100602
   128  H    0.069954
   129  H    0.080712
   130  H    0.057587
   131  H    0.072909
   132  H    0.096720
   133  H    0.070571
   134  H    0.105813
   135  H    0.080184
   136  H    0.104688
   137  H    0.112401
 Sum of Mulliken charges =   0.00000

 Dipole moment (field-independent basis, Debye):
    X=              0.2915    Y=              5.4301    Z=              0.7722  Tot=              5.4924
 Quadrupole moment (field-independent basis, Debye-Ang):
   XX=           -348.9486   YY=           -390.1810   ZZ=           -398.2850
   XY=            -37.3433   XZ=              7.7281   YZ=             -0.0785

 Normal termination of Gaussian 09 at Fri Jun 28 21:37:50 2019.
