 Gaussian 09, Revision D.01,
 Gaussian 09:  ES64L-G09RevD.01 24-Apr-2013

 -------------------------------------
 # td=(NStates=1) CAM-B3LYP/6-31G(d,p)
 -------------------------------------

 --
 TD
 --
 Symbolic Z-matrix:
 Charge =  0 Multiplicity = 1

                         Standard orientation:
 ---------------------------------------------------------------------
 Center     Atomic      Atomic             Coordinates (Angstroms)
 Number     Number       Type             X           Y           Z
 ---------------------------------------------------------------------
      1         12           0       -7.096662    0.639646    0.087628
      2          6           0       -4.841226   -2.001758    0.515916
      3          6           0       -4.692634    2.800404    1.182527
      4          6           0       -9.274092    3.161145   -0.238708
      5          6           0       -9.551136   -1.707684   -0.962694
      6          7           0       -5.144961    0.401661    0.661529
      7          6           0       -4.338359   -0.703915    0.734387
      8          6           0       -2.918327   -0.474144    1.255966
      9          6           0       -3.059130    1.021176    1.675038
     10          6           0       -4.337705    1.491942    1.127526
     11          6           0       -2.973948    1.106295    3.279583
     12          6           0       -2.061326   -0.656599    0.043621
     13          6           0       -0.540483   -0.418822    0.453809
     14          6           0        0.454492   -0.666742   -0.670814
     15          8           0        0.204823   -0.988572   -1.878969
     16          8           0        1.714167   -0.508041   -0.307763
     17          7           0       -6.996199    2.601895    0.346745
     18          6           0       -5.937943    3.351896    0.855940
     19          6           0       -6.292219    4.750212    0.851148
     20          6           0       -7.608108    4.909363    0.426351
     21          6           0       -8.013103    3.462993    0.189498
     22          6           0       -5.329039    5.784522    1.425330
     23          6           0       -8.440184    6.103135    0.270521
     24          6           0       -8.059513    7.321137    0.111553
     25          7           0       -9.086097    0.717917   -0.492952
     26          6           0       -9.925177    1.890292   -0.528996
     27          6           0      -11.198684    1.441970   -1.062568
     28          6           0      -11.190951    0.117672   -1.281228
     29          6           0       -9.859533   -0.317899   -0.910139
     30          6           0      -12.239618    2.507977   -1.263132
     31          6           0      -12.283406   -0.720766   -1.675670
     32          6           0      -12.427600   -1.079951   -3.111466
     33          7           0       -7.253574   -1.394993   -0.060041
     34          6           0       -8.304064   -2.151297   -0.529251
     35          6           0       -7.797070   -3.608410   -0.634337
     36          6           0       -6.569309   -3.596167   -0.105319
     37          6           0       -6.218194   -2.217148    0.219324
     38          6           0       -8.573771   -4.764093   -1.007913
     39          6           0       -5.308544   -4.426956    0.089014
     40          8           0       -5.096822   -5.629120    0.038431
     41          6           0       -4.189490   -3.279257    0.571613
     42          6           0       -3.631567   -3.721011    1.815706
     43          8           0       -3.788110   -3.230369    2.947502
     44          8           0       -2.764226   -4.787355    1.661813
     45          6           0       -2.210503   -5.233028    2.949255
     46          6           0        2.855210   -0.550098   -1.291754
     47          6           0        3.985389   -0.433154   -0.567783
     48          6           0        5.119652    0.268425   -0.976033
     49          6           0        5.064565    1.188308   -2.135423
     50          6           0        6.365939    0.415562   -0.123609
     51          6           0        7.565256    0.083690   -0.985374
     52          6           0        8.797419   -0.141779    0.045130
     53          6           0       10.172995   -0.535156   -0.726276
     54          6           0        9.951765   -1.975482   -1.326155
     55          6           0       11.326270   -0.356747    0.114044
     56          6           0       12.654554   -0.627937   -0.602752
     57          6           0       13.974854   -0.077653    0.281264
     58          6           0       15.297393   -0.109226   -0.414212
     59          6           0       15.589230   -1.562299   -0.996784
     60          6           0       16.409290    0.314970    0.558243
     61          6           0       17.769839    0.526108   -0.177979
     62          6           0       18.761286    1.228085    0.656020
     63          6           0       20.216107    1.360810    0.110908
     64          6           0       20.309610    2.194086   -1.178745
     65          6           0       21.261171    1.808743    1.271415
     66          1           0       -3.979830    3.673177    1.499655
     67          1           0      -10.077794    3.961419   -0.256197
     68          1           0      -10.122689   -2.568781   -1.112580
     69          1           0       -2.658223   -1.205194    2.146804
     70          1           0       -2.310424    1.785621    1.135774
     71          1           0       -2.008870    0.716546    3.387961
     72          1           0       -3.268493    2.133164    3.642322
     73          1           0       -3.572052    0.320595    3.760148
     74          1           0       -2.006458   -1.727115   -0.548235
     75          1           0       -2.193583    0.399100   -0.659354
     76          1           0       -0.243504    0.641646    0.837042
     77          1           0       -0.057427   -0.954645    1.501134
     78          1           0       -4.729397    6.316374    0.759647
     79          1           0       -5.981937    6.683973    1.766986
     80          1           0       -4.776118    5.333782    2.134862
     81          1           0       -9.499103    5.896201    0.266111
     82          1           0       -8.875162    8.117613   -0.220835
     83          1           0       -7.052176    7.734180   -0.148370
     84          1           0      -11.938636    3.348858   -1.774741
     85          1           0      -13.122502    2.125088   -1.790804
     86          1           0      -12.517394    3.023716   -0.273797
     87          1           0      -12.410435   -1.528041   -0.995379
     88          1           0      -13.318964   -0.225629   -1.445724
     89          1           0      -13.434354   -1.455137   -3.371908
     90          1           0      -12.393740   -0.109724   -3.850539
     91          1           0      -11.672419   -1.744088   -3.476494
     92          1           0       -8.893650   -4.638228   -2.064275
     93          1           0       -7.908738   -5.560582   -1.228636
     94          1           0       -9.143965   -5.053552   -0.155967
     95          1           0       -3.437433   -3.503953   -0.100633
     96          1           0       -1.434994   -4.523008    3.448003
     97          1           0       -2.978353   -5.463369    3.566703
     98          1           0       -1.689886   -5.989041    2.719865
     99          1           0        2.699033   -1.615711   -1.871280
    100          1           0        2.727776    0.159792   -2.062794
    101          1           0        3.964199   -1.051697    0.371077
    102          1           0        4.005495    1.409118   -2.479538
    103          1           0        5.703357    2.305222   -1.931281
    104          1           0        5.564052    0.710564   -2.909098
    105          1           0        6.524124    1.501907    0.359247
    106          1           0        6.260787   -0.161327    0.833868
    107          1           0        7.421363   -0.907272   -1.713789
    108          1           0        7.714764    0.863145   -1.743523
    109          1           0        9.013169    0.780025    0.321335
    110          1           0        8.408444   -1.111470    0.694285
    111          1           0       10.145434    0.058225   -1.499718
    112          1           0        9.118848   -1.854044   -1.980054
    113          1           0       10.751213   -2.551871   -2.009524
    114          1           0        9.817751   -2.736907   -0.376919
    115          1           0       11.270962    0.798438    0.404298
    116          1           0       11.354124   -1.009084    1.185686
    117          1           0       13.035413   -1.690482   -0.782389
    118          1           0       12.600173   -0.155505   -1.669538
    119          1           0       13.661900    1.132370    0.467984
    120          1           0       13.851445   -0.672267    1.082054
    121          1           0       14.987026    0.618874   -1.378336
    122          1           0       15.344916   -2.353450   -0.188639
    123          1           0       14.948347   -1.948261   -1.850334
    124          1           0       16.716610   -1.706562   -1.250846
    125          1           0       16.182497    1.384431    0.970650
    126          1           0       16.647380   -0.611346    1.415820
    127          1           0       18.221240   -0.437441   -0.445545
    128          1           0       17.672433    0.981949   -1.087544
    129          1           0       18.420137    2.293454    0.940279
    130          1           0       18.842689    0.774769    1.668471
    131          1           0       20.734694    0.295049   -0.113927
    132          1           0       19.710230    3.255420   -1.264283
    133          1           0       21.380397    2.401879   -1.411953
    134          1           0       19.921401    1.545663   -2.081433
    135          1           0       21.114916    1.058934    2.095901
    136          1           0       22.262596    1.718425    0.984663
    137          1           0       21.116481    2.778194    1.708300
 ---------------------------------------------------------------------

 SCF Done:  E(RCAM-B3LYP) =  -2932.59666138     A.U. after   15 cycles

 Excitation energies and oscillator strengths:

 Excited State   1:      Singlet-A      2.0038 eV  618.75 nm  f=0.2301  <S**2>=0.000
     240 -> 243        0.24931
     241 -> 242        0.65551
 This state for optimization and/or second-order correction.
 Total Energy, E(TD-HF/TD-KS) =  -2932.52302327
 Copying the excited state density for this state as the 1-particle RhoCI density.

 The electronic state is 1-A.
 Alpha  occ. eigenvalues --  -46.83372 -19.25566 -19.25558 -19.22644 -19.20178
 Alpha  occ. eigenvalues --  -19.19059 -14.42054 -14.39675 -14.39629 -14.39033
 Alpha  occ. eigenvalues --  -10.38909 -10.38626 -10.37537 -10.32028 -10.31482
 Alpha  occ. eigenvalues --  -10.30662 -10.30529 -10.30173 -10.29751 -10.29660
 Alpha  occ. eigenvalues --  -10.29479 -10.29230 -10.29062 -10.28933 -10.28814
 Alpha  occ. eigenvalues --  -10.28586 -10.28573 -10.28529 -10.28462 -10.28099
 Alpha  occ. eigenvalues --  -10.27961 -10.27906 -10.27885 -10.27800 -10.27694
 Alpha  occ. eigenvalues --  -10.27606 -10.27575 -10.27473 -10.27358 -10.27156
 Alpha  occ. eigenvalues --  -10.26997 -10.26824 -10.26792 -10.26725 -10.26604
 Alpha  occ. eigenvalues --  -10.26601 -10.26508 -10.26492 -10.26409 -10.26301
 Alpha  occ. eigenvalues --  -10.26191 -10.26116 -10.26061 -10.25824 -10.25721
 Alpha  occ. eigenvalues --  -10.25710 -10.25630 -10.25612 -10.25263 -10.25189
 Alpha  occ. eigenvalues --  -10.25115 -10.25091 -10.24559 -10.24259 -10.23917
 Alpha  occ. eigenvalues --   -3.12609  -1.87305  -1.86838  -1.86816  -1.16586
 Alpha  occ. eigenvalues --   -1.16203  -1.12138  -1.06780  -1.04854  -1.04075
 Alpha  occ. eigenvalues --   -1.03382  -1.02558  -1.01049  -0.93164  -0.92244
 Alpha  occ. eigenvalues --   -0.90454  -0.89788  -0.89568  -0.89403  -0.89250
 Alpha  occ. eigenvalues --   -0.88766  -0.88369  -0.87384  -0.87209  -0.86655
 Alpha  occ. eigenvalues --   -0.85603  -0.83965  -0.83677  -0.83077  -0.82698
 Alpha  occ. eigenvalues --   -0.81800  -0.81467  -0.80606  -0.79128  -0.78649
 Alpha  occ. eigenvalues --   -0.78130  -0.77442  -0.77051  -0.75371  -0.75225
 Alpha  occ. eigenvalues --   -0.75145  -0.74281  -0.73830  -0.73033  -0.72247
 Alpha  occ. eigenvalues --   -0.71914  -0.70167  -0.69433  -0.68777  -0.68006
 Alpha  occ. eigenvalues --   -0.66976  -0.66229  -0.64976  -0.64762  -0.64534
 Alpha  occ. eigenvalues --   -0.64438  -0.62949  -0.62436  -0.61855  -0.61238
 Alpha  occ. eigenvalues --   -0.60892  -0.60223  -0.59941  -0.59795  -0.59105
 Alpha  occ. eigenvalues --   -0.58821  -0.58269  -0.57872  -0.57221  -0.56375
 Alpha  occ. eigenvalues --   -0.55765  -0.55289  -0.54953  -0.54809  -0.54093
 Alpha  occ. eigenvalues --   -0.53875  -0.53633  -0.53521  -0.53510  -0.53098
 Alpha  occ. eigenvalues --   -0.52710  -0.52673  -0.52165  -0.52050  -0.51635
 Alpha  occ. eigenvalues --   -0.51149  -0.50810  -0.50752  -0.50509  -0.50388
 Alpha  occ. eigenvalues --   -0.50270  -0.50182  -0.49986  -0.49648  -0.49436
 Alpha  occ. eigenvalues --   -0.49377  -0.49121  -0.48858  -0.48674  -0.48557
 Alpha  occ. eigenvalues --   -0.48192  -0.48038  -0.47711  -0.47656  -0.47331
 Alpha  occ. eigenvalues --   -0.46918  -0.46672  -0.46242  -0.46170  -0.45971
 Alpha  occ. eigenvalues --   -0.45745  -0.45631  -0.45240  -0.45071  -0.44777
 Alpha  occ. eigenvalues --   -0.44668  -0.44591  -0.44333  -0.44189  -0.43989
 Alpha  occ. eigenvalues --   -0.43931  -0.43566  -0.43432  -0.42952  -0.42827
 Alpha  occ. eigenvalues --   -0.42770  -0.42667  -0.42523  -0.42440  -0.42196
 Alpha  occ. eigenvalues --   -0.42103  -0.41993  -0.41754  -0.41429  -0.41367
 Alpha  occ. eigenvalues --   -0.41152  -0.40798  -0.40343  -0.40156  -0.39938
 Alpha  occ. eigenvalues --   -0.39730  -0.39479  -0.39207  -0.39142  -0.38720
 Alpha  occ. eigenvalues --   -0.38477  -0.38183  -0.37976  -0.37730  -0.37527
 Alpha  occ. eigenvalues --   -0.37438  -0.36995  -0.36831  -0.36682  -0.36618
 Alpha  occ. eigenvalues --   -0.36353  -0.36045  -0.36035  -0.35817  -0.35449
 Alpha  occ. eigenvalues --   -0.35374  -0.35143  -0.34679  -0.33245  -0.33178
 Alpha  occ. eigenvalues --   -0.32963  -0.32493  -0.32038  -0.30980  -0.30674
 Alpha  occ. eigenvalues --   -0.30340  -0.28649  -0.28147  -0.27751  -0.23454
 Alpha  occ. eigenvalues --   -0.20579
 Alpha virt. eigenvalues --   -0.05907  -0.03417   0.01218   0.03556   0.04100
 Alpha virt. eigenvalues --    0.05536   0.05761   0.06239   0.06990   0.07519
 Alpha virt. eigenvalues --    0.08313   0.10104   0.11151   0.11441   0.11712

 Mulliken charges:
               1
     1  Mg   0.812318
     2  C    0.093907
     3  C   -0.218744
     4  C   -0.188124
     5  C   -0.125924
     6  N   -0.642965
     7  C    0.315499
     8  C   -0.147842
     9  C   -0.163428
    10  C    0.353086
    11  C   -0.308832
    12  C   -0.158357
    13  C   -0.271781
    14  C    0.608957
    15  O   -0.526782
    16  O   -0.482821
    17  N   -0.718485
    18  C    0.314112
    19  C   -0.025214
    20  C    0.033902
    21  C    0.326666
    22  C   -0.370439
    23  C   -0.036583
    24  C   -0.262381
    25  N   -0.676021
    26  C    0.229529
    27  C    0.032221
    28  C    0.062994
    29  C    0.288284
    30  C   -0.379714
    31  C   -0.262489
    32  C   -0.298832
    33  N   -0.707078
    34  C    0.259299
    35  C   -0.031871
    36  C    0.032674
    37  C    0.279804
    38  C   -0.393192
    39  C    0.375427
    40  O   -0.430447
    41  C   -0.362031
    42  C    0.642458
    43  O   -0.508837
    44  O   -0.484995
    45  C   -0.051928
    46  C    0.026591
    47  C   -0.109647
    48  C    0.112883
    49  C   -0.358083
    50  C   -0.209718
    51  C   -0.204208
    52  C   -0.161918
    53  C   -0.061649
    54  C   -0.294991
    55  C   -0.133243
    56  C   -0.194527
    57  C   -0.159508
    58  C   -0.027456
    59  C   -0.326960
    60  C   -0.159600
    61  C   -0.171186
    62  C   -0.163721
    63  C   -0.048691
    64  C   -0.295761
    65  C   -0.326322
    66  H    0.084962
    67  H    0.081443
    68  H    0.101217
    69  H    0.140676
    70  H    0.096135
    71  H    0.120650
    72  H    0.112631
    73  H    0.136060
    74  H    0.137055
    75  H    0.107996
    76  H    0.134115
    77  H    0.105293
    78  H    0.128564
    79  H    0.108998
    80  H    0.120863
    81  H    0.098611
    82  H    0.087645
    83  H    0.108823
    84  H    0.130020
    85  H    0.107731
    86  H    0.106221
    87  H    0.115482
    88  H    0.090916
    89  H    0.104349
    90  H    0.082668
    91  H    0.112400
    92  H    0.126065
    93  H    0.147251
    94  H    0.151903
    95  H    0.168232
    96  H    0.100977
    97  H    0.141297
    98  H    0.123744
    99  H    0.120724
   100  H    0.124167
   101  H    0.100959
   102  H    0.113199
   103  H    0.081253
   104  H    0.141199
   105  H    0.092635
   106  H    0.102454
   107  H    0.077002
   108  H    0.105695
   109  H    0.105737
   110  H    0.094338
   111  H    0.100303
   112  H    0.104882
   113  H    0.082341
   114  H    0.074787
   115  H    0.071511
   116  H    0.063529
   117  H    0.096081
   118  H    0.070968
   119  H    0.052532
   120  H    0.104525
   121  H    0.070194
   122  H    0.089796
   123  H    0.107855
   124  H    0.096785
   125  H    0.093088
   126  H    0.072274
   127  H    0.092386
   128  H    0.108558
   129  H    0.075781
   130  H    0.084092
   131  H    0.067403
   132  H    0.082748
   133  H    0.101925
   134  H    0.090702
   135  H    0.093979
   136  H    0.108095
   137  H    0.105242
 Sum of Mulliken charges =   0.00000

 Dipole moment (field-independent basis, Debye):
    X=              2.4543    Y=              3.4402    Z=              0.3257  Tot=              4.2385
 Quadrupole moment (field-independent basis, Debye-Ang):
   XX=           -347.8465   YY=           -390.3820   ZZ=           -401.6521
   XY=             -9.4560   XZ=              7.6466   YZ=             -3.7663

 Normal termination of Gaussian 09 at Sat Jun 29 16:47:48 2019.
