 Gaussian 09, Revision D.01,
 Gaussian 09:  ES64L-G09RevD.01 24-Apr-2013

 -------------------------------------
 # td=(NStates=1) CAM-B3LYP/6-31G(d,p)
 -------------------------------------

 --
 TD
 --
 Symbolic Z-matrix:
 Charge =  0 Multiplicity = 1

                         Standard orientation:
 ---------------------------------------------------------------------
 Center     Atomic      Atomic             Coordinates (Angstroms)
 Number     Number       Type             X           Y           Z
 ---------------------------------------------------------------------
      1         12           0       -7.153969    0.566529    0.233208
      2          6           0       -4.883233   -1.950346    0.469299
      3          6           0       -4.800203    2.779782    1.283887
      4          6           0       -9.384248    3.067249   -0.312108
      5          6           0       -9.604630   -1.721818   -0.920570
      6          7           0       -5.114444    0.426395    0.696532
      7          6           0       -4.355554   -0.710494    0.754858
      8          6           0       -2.922787   -0.423362    1.259627
      9          6           0       -3.003333    1.019647    1.762929
     10          6           0       -4.354585    1.396830    1.292535
     11          6           0       -2.968168    1.219676    3.247384
     12          6           0       -1.935233   -0.574747    0.075070
     13          6           0       -0.440936   -0.473546    0.544534
     14          6           0        0.507114   -0.656122   -0.564797
     15          8           0        0.338158   -0.885047   -1.753980
     16          8           0        1.758943   -0.515327   -0.121538
     17          7           0       -7.093852    2.654155    0.430023
     18          6           0       -6.010783    3.329535    0.905071
     19          6           0       -6.414591    4.710432    0.978077
     20          6           0       -7.727567    4.820830    0.417624
     21          6           0       -8.076114    3.409616    0.152481
     22          6           0       -5.582708    5.822375    1.467177
     23          6           0       -8.627577    5.981132    0.205388
     24          6           0       -8.295310    7.208525   -0.132808
     25          7           0       -9.045847    0.742967   -0.582851
     26          6           0       -9.875462    1.853212   -0.673462
     27          6           0      -11.187422    1.464677   -1.038312
     28          6           0      -11.261577    0.174499   -1.289794
     29          6           0       -9.887124   -0.262338   -0.870091
     30          6           0      -12.233116    2.573663   -1.415953
     31          6           0      -12.393155   -0.634606   -1.567266
     32          6           0      -12.368087   -1.068826   -3.094381
     33          7           0       -7.195886   -1.354463   -0.215281
     34          6           0       -8.318800   -2.260520   -0.550432
     35          6           0       -7.777469   -3.514569   -0.602815
     36          6           0       -6.478987   -3.654565   -0.282126
     37          6           0       -6.182814   -2.214019    0.073219
     38          6           0       -8.455686   -4.875410   -0.842866
     39          6           0       -5.278582   -4.379208    0.072199
     40          8           0       -5.099264   -5.544941    0.099442
     41          6           0       -4.110254   -3.356128    0.503700
     42          6           0       -3.423342   -3.617707    1.733419
     43          8           0       -3.636925   -3.203004    2.821590
     44          8           0       -2.650170   -4.789034    1.616546
     45          6           0       -2.094929   -5.276125    2.849852
     46          6           0        2.904624   -0.724426   -1.090020
     47          6           0        4.099885   -0.483295   -0.481715
     48          6           0        5.110539    0.244972   -0.868587
     49          6           0        4.961735    1.170560   -2.052961
     50          6           0        6.432176    0.425286   -0.165477
     51          6           0        7.575005   -0.041655   -0.983318
     52          6           0        8.877129   -0.128261   -0.074631
     53          6           0       10.205784   -0.521279   -0.867742
     54          6           0       10.138073   -1.928910   -1.360786
     55          6           0       11.346382   -0.323600    0.089968
     56          6           0       12.710397   -0.420105   -0.600227
     57          6           0       13.953469   -0.171076    0.313894
     58          6           0       15.316831   -0.219316   -0.368541
     59          6           0       15.672182   -1.708151   -0.934936
     60          6           0       16.376470    0.382075    0.482165
     61          6           0       17.829948    0.691707   -0.358249
     62          6           0       18.740538    1.304134    0.693318
     63          6           0       20.201341    1.457573    0.194638
     64          6           0       20.144439    2.227984   -1.180066
     65          6           0       21.171441    2.004658    1.191023
     66          1           0       -4.290076    3.606752    1.618478
     67          1           0      -10.273129    3.954178   -0.177435
     68          1           0      -10.083187   -2.571308   -1.364504
     69          1           0       -2.602068   -1.129802    2.218861
     70          1           0       -2.415764    1.549977    1.157683
     71          1           0       -1.999054    0.732068    3.723039
     72          1           0       -3.258423    2.100054    3.722463
     73          1           0       -3.742692    0.312604    3.504089
     74          1           0       -2.112180   -1.510891   -0.529320
     75          1           0       -2.400649    0.277171   -0.529055
     76          1           0       -0.168811    0.314773    1.205583
     77          1           0       -0.219536   -1.401497    1.127838
     78          1           0       -4.815483    6.275758    0.766031
     79          1           0       -6.137646    6.636691    1.607185
     80          1           0       -4.944021    5.796287    2.275964
     81          1           0       -9.656904    5.833974   -0.087258
     82          1           0       -9.096049    7.932003   -0.285676
     83          1           0       -7.275526    7.437478   -0.333179
     84          1           0      -11.772952    3.129419   -2.246860
     85          1           0      -13.120246    2.123446   -1.723683
     86          1           0      -12.574754    3.183562   -0.599526
     87          1           0      -12.321024   -1.555218   -1.055072
     88          1           0      -13.482229   -0.271245   -1.391247
     89          1           0      -13.219911   -1.666696   -3.469002
     90          1           0      -12.398647   -0.168607   -3.756119
     91          1           0      -11.621920   -1.516165   -3.556855
     92          1           0       -8.867918   -4.918525   -1.873210
     93          1           0       -7.596625   -5.570310   -0.776888
     94          1           0       -9.292110   -5.346675   -0.444158
     95          1           0       -3.427701   -3.279336   -0.370185
     96          1           0       -1.275036   -4.636723    3.168201
     97          1           0       -2.934848   -5.248334    3.669052
     98          1           0       -1.763792   -6.368337    2.617459
     99          1           0        2.570752   -1.548359   -1.666106
    100          1           0        2.505841    0.022017   -1.830222
    101          1           0        4.207979   -1.241357    0.268998
    102          1           0        3.911795    1.106578   -2.567182
    103          1           0        5.048538    2.185297   -1.904028
    104          1           0        5.713692    0.865094   -2.815295
    105          1           0        6.641086    1.408395    0.255583
    106          1           0        6.438157   -0.222046    0.762157
    107          1           0        7.578566   -1.201104   -1.351573
    108          1           0        7.878255    0.758851   -1.612594
    109          1           0        8.943373    0.847917    0.413911
    110          1           0        8.885712   -0.899323    0.573971
    111          1           0       10.446580    0.192977   -1.848019
    112          1           0        9.195555   -2.203556   -1.937886
    113          1           0       11.026958   -2.253234   -1.932725
    114          1           0        9.874163   -2.310495   -0.280458
    115          1           0       11.103177    0.596613    0.361167
    116          1           0       11.117509   -0.993010    0.912126
    117          1           0       12.659917   -1.509314   -0.909604
    118          1           0       12.833277    0.091843   -1.646504
    119          1           0       13.780093    0.873778    0.799531
    120          1           0       13.985178   -0.976788    1.069010
    121          1           0       15.243886    0.480477   -1.252523
    122          1           0       15.653971   -2.397826   -0.048562
    123          1           0       14.929883   -2.150330   -1.855719
    124          1           0       16.717842   -1.660518   -1.363576
    125          1           0       16.096783    1.299842    0.894516
    126          1           0       16.638153   -0.476443    1.229570
    127          1           0       18.254642   -0.117908   -1.025560
    128          1           0       17.538214    1.349766   -1.047636
    129          1           0       18.104141    2.387678    0.910898
    130          1           0       18.742014    0.640807    1.627626
    131          1           0       20.636295    0.290948   -0.053020
    132          1           0       19.558537    3.298981   -0.886502
    133          1           0       21.065071    2.180131   -1.656714
    134          1           0       19.374048    1.764404   -1.792676
    135          1           0       21.019086    1.307575    1.922440
    136          1           0       22.264470    1.891138    0.784712
    137          1           0       20.922812    3.024482    1.482048
 ---------------------------------------------------------------------

 SCF Done:  E(RCAM-B3LYP) =  -2932.59657193     A.U. after   17 cycles

 Excitation energies and oscillator strengths:

 Excited State   1:      Singlet-A      1.8414 eV  673.33 nm  f=0.2708  <S**2>=0.000
     240 -> 243        0.21559
     241 -> 242        0.67041
     240 <- 243        0.10081
 This state for optimization and/or second-order correction.
 Total Energy, E(TD-HF/TD-KS) =  -2932.52890324
 Copying the excited state density for this state as the 1-particle RhoCI density.

 The electronic state is 1-A.
 Alpha  occ. eigenvalues --  -46.84664 -19.24324 -19.24102 -19.21379 -19.21005
 Alpha  occ. eigenvalues --  -19.19640 -14.42800 -14.40154 -14.39557 -14.38748
 Alpha  occ. eigenvalues --  -10.38823 -10.38203 -10.36219 -10.31609 -10.31317
 Alpha  occ. eigenvalues --  -10.30825 -10.30824 -10.30245 -10.29310 -10.29176
 Alpha  occ. eigenvalues --  -10.29068 -10.29042 -10.28880 -10.28791 -10.28485
 Alpha  occ. eigenvalues --  -10.28414 -10.28390 -10.28259 -10.28258 -10.27972
 Alpha  occ. eigenvalues --  -10.27969 -10.27588 -10.27464 -10.27284 -10.27218
 Alpha  occ. eigenvalues --  -10.27213 -10.26988 -10.26981 -10.26850 -10.26807
 Alpha  occ. eigenvalues --  -10.26779 -10.26670 -10.26568 -10.26462 -10.26239
 Alpha  occ. eigenvalues --  -10.26197 -10.25986 -10.25874 -10.25860 -10.25857
 Alpha  occ. eigenvalues --  -10.25847 -10.25834 -10.25825 -10.25516 -10.25361
 Alpha  occ. eigenvalues --  -10.25208 -10.25138 -10.25135 -10.25073 -10.24913
 Alpha  occ. eigenvalues --  -10.24879 -10.24376 -10.24169 -10.24105 -10.23661
 Alpha  occ. eigenvalues --   -3.13745  -1.88437  -1.88005  -1.87912  -1.17708
 Alpha  occ. eigenvalues --   -1.16868  -1.13782  -1.08591  -1.06781  -1.05552
 Alpha  occ. eigenvalues --   -1.04782  -1.04107  -1.02102  -0.92833  -0.91822
 Alpha  occ. eigenvalues --   -0.91459  -0.91036  -0.90089  -0.89612  -0.88804
 Alpha  occ. eigenvalues --   -0.88483  -0.88206  -0.88009  -0.87648  -0.86887
 Alpha  occ. eigenvalues --   -0.86042  -0.84367  -0.83684  -0.83205  -0.82931
 Alpha  occ. eigenvalues --   -0.81859  -0.80955  -0.80337  -0.79856  -0.78718
 Alpha  occ. eigenvalues --   -0.78109  -0.77574  -0.76257  -0.76120  -0.76065
 Alpha  occ. eigenvalues --   -0.75146  -0.74990  -0.73913  -0.73611  -0.73342
 Alpha  occ. eigenvalues --   -0.72899  -0.71764  -0.70420  -0.69086  -0.68221
 Alpha  occ. eigenvalues --   -0.67207  -0.66735  -0.65567  -0.65221  -0.65032
 Alpha  occ. eigenvalues --   -0.63802  -0.62683  -0.62223  -0.61908  -0.61353
 Alpha  occ. eigenvalues --   -0.61269  -0.61151  -0.60406  -0.60199  -0.59600
 Alpha  occ. eigenvalues --   -0.59491  -0.58477  -0.58167  -0.57532  -0.57166
 Alpha  occ. eigenvalues --   -0.56940  -0.56342  -0.56166  -0.55553  -0.55324
 Alpha  occ. eigenvalues --   -0.54876  -0.54658  -0.54013  -0.53703  -0.53359
 Alpha  occ. eigenvalues --   -0.53190  -0.52898  -0.52550  -0.52465  -0.51926
 Alpha  occ. eigenvalues --   -0.51779  -0.51547  -0.51261  -0.50925  -0.50692
 Alpha  occ. eigenvalues --   -0.50372  -0.50159  -0.50029  -0.49807  -0.49528
 Alpha  occ. eigenvalues --   -0.49258  -0.49162  -0.48977  -0.48824  -0.48522
 Alpha  occ. eigenvalues --   -0.48237  -0.47977  -0.47583  -0.47346  -0.47175
 Alpha  occ. eigenvalues --   -0.46939  -0.46688  -0.46674  -0.46418  -0.46259
 Alpha  occ. eigenvalues --   -0.45710  -0.45538  -0.45349  -0.45234  -0.45004
 Alpha  occ. eigenvalues --   -0.44963  -0.44696  -0.44611  -0.44274  -0.44225
 Alpha  occ. eigenvalues --   -0.43891  -0.43772  -0.43512  -0.43353  -0.43268
 Alpha  occ. eigenvalues --   -0.42981  -0.42827  -0.42702  -0.42577  -0.42486
 Alpha  occ. eigenvalues --   -0.42065  -0.41940  -0.41704  -0.41475  -0.41189
 Alpha  occ. eigenvalues --   -0.41063  -0.40841  -0.40703  -0.40475  -0.40305
 Alpha  occ. eigenvalues --   -0.40029  -0.39827  -0.39709  -0.39553  -0.39260
 Alpha  occ. eigenvalues --   -0.38865  -0.38645  -0.38356  -0.38147  -0.38092
 Alpha  occ. eigenvalues --   -0.37513  -0.37247  -0.37074  -0.36738  -0.36398
 Alpha  occ. eigenvalues --   -0.36322  -0.35820  -0.35634  -0.35348  -0.35281
 Alpha  occ. eigenvalues --   -0.34886  -0.34822  -0.34277  -0.33983  -0.33675
 Alpha  occ. eigenvalues --   -0.33263  -0.33001  -0.32339  -0.31512  -0.30923
 Alpha  occ. eigenvalues --   -0.30743  -0.29933  -0.29422  -0.26756  -0.23481
 Alpha  occ. eigenvalues --   -0.20398
 Alpha virt. eigenvalues --   -0.06916  -0.02851   0.01268   0.03994   0.04495
 Alpha virt. eigenvalues --    0.04973   0.05232   0.06992   0.07575   0.07772
 Alpha virt. eigenvalues --    0.08121   0.10566   0.11162   0.11329   0.11659

 Mulliken charges:
               1
     1  Mg   0.833244
     2  C    0.017097
     3  C   -0.154546
     4  C   -0.203919
     5  C   -0.166805
     6  N   -0.607129
     7  C    0.301187
     8  C   -0.193269
     9  C   -0.088838
    10  C    0.281442
    11  C   -0.301109
    12  C   -0.166598
    13  C   -0.269105
    14  C    0.613864
    15  O   -0.508466
    16  O   -0.514852
    17  N   -0.717996
    18  C    0.290741
    19  C   -0.003787
    20  C   -0.006882
    21  C    0.338309
    22  C   -0.393555
    23  C   -0.070684
    24  C   -0.244265
    25  N   -0.662646
    26  C    0.320754
    27  C   -0.021770
    28  C    0.113856
    29  C    0.258830
    30  C   -0.364471
    31  C   -0.266026
    32  C   -0.339349
    33  N   -0.733402
    34  C    0.269776
    35  C   -0.050807
    36  C    0.086562
    37  C    0.252411
    38  C   -0.395810
    39  C    0.367713
    40  O   -0.418367
    41  C   -0.302214
    42  C    0.630191
    43  O   -0.450660
    44  O   -0.482377
    45  C   -0.074507
    46  C   -0.004603
    47  C   -0.109393
    48  C    0.145344
    49  C   -0.376279
    50  C   -0.234630
    51  C   -0.170170
    52  C   -0.198039
    53  C   -0.093566
    54  C   -0.284313
    55  C   -0.135446
    56  C   -0.188588
    57  C   -0.158554
    58  C   -0.060197
    59  C   -0.305473
    60  C   -0.170975
    61  C   -0.203480
    62  C   -0.141378
    63  C   -0.055585
    64  C   -0.294040
    65  C   -0.282532
    66  H    0.064442
    67  H    0.089743
    68  H    0.108759
    69  H    0.110275
    70  H    0.120958
    71  H    0.095756
    72  H    0.132857
    73  H    0.107571
    74  H    0.121981
    75  H    0.111179
    76  H    0.151454
    77  H    0.148268
    78  H    0.104350
    79  H    0.126501
    80  H    0.120856
    81  H    0.088911
    82  H    0.101081
    83  H    0.104283
    84  H    0.130897
    85  H    0.112648
    86  H    0.117036
    87  H    0.125479
    88  H    0.112887
    89  H    0.094242
    90  H    0.099268
    91  H    0.127107
    92  H    0.103443
    93  H    0.142160
    94  H    0.132656
    95  H    0.168043
    96  H    0.117012
    97  H    0.124182
    98  H    0.119523
    99  H    0.147866
   100  H    0.120875
   101  H    0.091062
   102  H    0.099619
   103  H    0.127417
   104  H    0.122138
   105  H    0.115639
   106  H    0.095266
   107  H    0.091843
   108  H    0.115655
   109  H    0.089194
   110  H    0.098368
   111  H    0.042940
   112  H    0.094840
   113  H    0.115332
   114  H    0.073616
   115  H    0.101036
   116  H    0.086073
   117  H    0.089614
   118  H    0.083549
   119  H    0.075207
   120  H    0.089431
   121  H    0.070366
   122  H    0.101630
   123  H    0.080172
   124  H    0.104333
   125  H    0.103830
   126  H    0.077214
   127  H    0.090247
   128  H    0.117686
   129  H    0.054925
   130  H    0.088717
   131  H    0.043209
   132  H    0.068188
   133  H    0.107792
   134  H    0.105768
   135  H    0.112710
   136  H    0.086986
   137  H    0.103971
 Sum of Mulliken charges =   0.00000

 Dipole moment (field-independent basis, Debye):
    X=              1.6103    Y=              3.9383    Z=              0.9475  Tot=              4.3590
 Quadrupole moment (field-independent basis, Debye-Ang):
   XX=           -334.3638   YY=           -400.2541   ZZ=           -400.3117
   XY=            -16.8815   XZ=              7.8300   YZ=              0.5073

 Normal termination of Gaussian 09 at Fri Jun 28 04:14:59 2019.
