 Gaussian 09, Revision D.01,
 Gaussian 09:  ES64L-G09RevD.01 24-Apr-2013

 -------------------------------------
 # td=(NStates=1) CAM-B3LYP/6-31G(d,p)
 -------------------------------------

 --
 TD
 --
 Symbolic Z-matrix:
 Charge =  0 Multiplicity = 1

                         Standard orientation:
 ---------------------------------------------------------------------
 Center     Atomic      Atomic             Coordinates (Angstroms)
 Number     Number       Type             X           Y           Z
 ---------------------------------------------------------------------
      1         12           0       -7.209970    0.600889    0.106310
      2          6           0       -4.823862   -2.000528    0.356324
      3          6           0       -4.756631    2.801063    1.209549
      4          6           0       -9.286350    3.202976   -0.459628
      5          6           0       -9.510460   -1.707208   -0.810607
      6          7           0       -5.145434    0.409173    0.750909
      7          6           0       -4.379321   -0.773528    0.740474
      8          6           0       -2.885631   -0.472679    1.251354
      9          6           0       -3.034615    0.969988    1.758297
     10          6           0       -4.401271    1.370741    1.177718
     11          6           0       -2.870207    1.137283    3.245386
     12          6           0       -1.882238   -0.577495    0.117465
     13          6           0       -0.468152   -0.307541    0.580585
     14          6           0        0.492969   -0.533516   -0.504575
     15          8           0        0.146481   -0.709072   -1.695803
     16          8           0        1.715728   -0.413139   -0.155547
     17          7           0       -7.119541    2.592935    0.479066
     18          6           0       -6.063556    3.369775    0.866584
     19          6           0       -6.442689    4.718559    0.939603
     20          6           0       -7.674577    4.837305    0.499839
     21          6           0       -8.141426    3.452778    0.027694
     22          6           0       -5.435024    5.813318    1.333288
     23          6           0       -8.447638    6.023516    0.421870
     24          6           0       -8.147163    7.282776    0.125182
     25          7           0       -9.039356    0.762281   -0.504474
     26          6           0       -9.813486    1.950950   -0.709650
     27          6           0      -11.211740    1.543453   -1.079980
     28          6           0      -11.175858    0.164266   -1.256593
     29          6           0       -9.892584   -0.380293   -0.769114
     30          6           0      -12.350045    2.541713   -1.343110
     31          6           0      -12.336835   -0.702879   -1.761687
     32          6           0      -12.274007   -1.066445   -3.188049
     33          7           0       -7.226248   -1.398139   -0.125258
     34          6           0       -8.280464   -2.228263   -0.537395
     35          6           0       -7.879044   -3.602337   -0.614642
     36          6           0       -6.573074   -3.634222   -0.130130
     37          6           0       -6.180621   -2.290757    0.067616
     38          6           0       -8.651685   -4.839294   -1.015107
     39          6           0       -5.262313   -4.513779    0.060362
     40          8           0       -5.250430   -5.623005   -0.137178
     41          6           0       -4.160815   -3.368294    0.536627
     42          6           0       -3.610128   -3.790684    1.913795
     43          8           0       -3.924756   -3.241390    2.928370
     44          8           0       -2.764862   -4.789811    1.771525
     45          6           0       -2.384089   -5.258520    3.027461
     46          6           0        2.756038   -0.532928   -1.163556
     47          6           0        4.039201   -0.231501   -0.466027
     48          6           0        5.052442    0.466979   -0.913727
     49          6           0        5.205120    1.227220   -2.246438
     50          6           0        6.438636    0.407804   -0.178425
     51          6           0        7.643822   -0.187043   -1.010435
     52          6           0        8.953245   -0.210887   -0.142344
     53          6           0       10.208624   -0.481350   -0.897851
     54          6           0       10.278325   -2.071392   -1.361567
     55          6           0       11.425529   -0.195354   -0.015725
     56          6           0       12.778975   -0.371887   -0.779252
     57          6           0       14.025254   -0.264442    0.168062
     58          6           0       15.280158   -0.166556   -0.526124
     59          6           0       15.701374   -1.598498   -1.016040
     60          6           0       16.341289    0.262852    0.355957
     61          6           0       17.884190    0.393968   -0.090362
     62          6           0       18.773056    1.213069    0.764837
     63          6           0       20.242718    1.377839    0.230130
     64          6           0       20.307990    2.185434   -1.041880
     65          6           0       21.182725    1.895180    1.396484
     66          1           0       -4.022600    3.430902    1.494904
     67          1           0      -10.092559    3.911836   -0.448485
     68          1           0      -10.451893   -2.344195   -0.965618
     69          1           0       -2.796546   -1.179698    2.098323
     70          1           0       -2.325380    1.579765    1.257398
     71          1           0       -1.714775    0.735054    3.676476
     72          1           0       -2.949424    2.157514    3.667979
     73          1           0       -3.636856    0.616087    3.663138
     74          1           0       -2.077659   -1.518938   -0.534512
     75          1           0       -2.093338    0.179133   -0.705978
     76          1           0       -0.304409    0.779791    1.039794
     77          1           0       -0.243470   -0.974118    1.458492
     78          1           0       -4.635516    5.947849    0.290188
     79          1           0       -5.797375    6.983097    1.385002
     80          1           0       -4.852251    5.473738    2.282221
     81          1           0       -9.464617    5.907542    0.676471
     82          1           0       -9.094811    7.931973    0.078311
     83          1           0       -7.216163    7.840091   -0.470877
     84          1           0      -12.319247    2.949784   -2.331224
     85          1           0      -13.331843    1.979728   -1.143066
     86          1           0      -12.379128    3.187749   -0.490496
     87          1           0      -12.338484   -1.629141   -1.210138
     88          1           0      -13.276825   -0.108920   -1.666234
     89          1           0      -13.222371   -1.495976   -3.609497
     90          1           0      -12.196830   -0.105192   -3.791991
     91          1           0      -11.291662   -1.677868   -3.472427
     92          1           0       -9.194522   -4.597104   -2.050923
     93          1           0       -8.273657   -5.760057   -1.273379
     94          1           0       -9.418528   -5.161153   -0.318004
     95          1           0       -3.267718   -3.536488   -0.116945
     96          1           0       -1.901494   -4.419789    3.656176
     97          1           0       -3.365910   -5.606748    3.673777
     98          1           0       -1.811404   -6.187079    2.722736
     99          1           0        2.715131   -1.530841   -1.509422
    100          1           0        2.617282    0.069760   -2.024149
    101          1           0        4.179140   -0.676277    0.691357
    102          1           0        4.140106    1.556764   -2.668980
    103          1           0        5.693202    2.176523   -1.774352
    104          1           0        5.706989    0.715513   -3.036078
    105          1           0        6.771151    1.415074    0.237291
    106          1           0        6.244143   -0.403278    0.651707
    107          1           0        7.610830   -1.276558   -1.318525
    108          1           0        7.945911    0.324490   -2.028335
    109          1           0        9.126824    0.671364    0.375038
    110          1           0        8.852669   -0.814660    0.744809
    111          1           0       10.257571    0.150292   -1.733423
    112          1           0        9.347696   -2.163681   -1.929194
    113          1           0       11.024456   -2.159269   -2.099086
    114          1           0       10.254195   -2.849128   -0.537033
    115          1           0       11.393055    0.811655    0.325062
    116          1           0       11.366179   -0.905457    0.831337
    117          1           0       12.787982   -1.367052   -1.206631
    118          1           0       12.654559    0.570069   -1.412050
    119          1           0       13.924491    0.741856    0.607435
    120          1           0       14.030395   -1.130672    1.003647
    121          1           0       15.115420    0.512663   -1.477708
    122          1           0       15.686204   -2.376821   -0.078037
    123          1           0       15.048132   -1.894129   -1.809393
    124          1           0       16.574701   -1.852217   -1.489282
    125          1           0       16.049050    1.215331    0.909609
    126          1           0       16.192581   -0.405609    1.383415
    127          1           0       18.143994   -0.703140   -0.457432
    128          1           0       17.697370    0.825437   -1.018814
    129          1           0       18.347649    2.037877    1.161512
    130          1           0       18.882911    0.625056    1.572596
    131          1           0       20.461724    0.353631   -0.188767
    132          1           0       19.866348    3.244944   -0.958519
    133          1           0       21.412384    2.305597   -1.322373
    134          1           0       19.703833    1.533984   -1.810952
    135          1           0       21.250439    1.355171    2.297838
    136          1           0       22.311864    1.998088    0.887378
    137          1           0       20.882629    2.941169    1.663425
 ---------------------------------------------------------------------

 SCF Done:  E(RCAM-B3LYP) =  -2932.67790051     A.U. after   17 cycles

 Excitation energies and oscillator strengths:

 Excited State   1:      Singlet-A      2.1726 eV  570.67 nm  f=0.1938  <S**2>=0.000
     240 -> 242        0.11578
     240 -> 243       -0.26050
     241 -> 242        0.63517
 This state for optimization and/or second-order correction.
 Total Energy, E(TD-HF/TD-KS) =  -2932.59805812
 Copying the excited state density for this state as the 1-particle RhoCI density.

 The electronic state is 1-A.
 Alpha  occ. eigenvalues --  -46.82371 -19.27999 -19.27086 -19.22382 -19.21343
 Alpha  occ. eigenvalues --  -19.19146 -14.41590 -14.38866 -14.38728 -14.38661
 Alpha  occ. eigenvalues --  -10.39420 -10.38453 -10.36308 -10.33274 -10.32087
 Alpha  occ. eigenvalues --  -10.31331 -10.30348 -10.30210 -10.29879 -10.29414
 Alpha  occ. eigenvalues --  -10.29099 -10.28970 -10.28379 -10.28348 -10.28249
 Alpha  occ. eigenvalues --  -10.28067 -10.27884 -10.27876 -10.27873 -10.27732
 Alpha  occ. eigenvalues --  -10.27509 -10.27506 -10.27502 -10.27285 -10.27237
 Alpha  occ. eigenvalues --  -10.26991 -10.26809 -10.26713 -10.26690 -10.26603
 Alpha  occ. eigenvalues --  -10.26602 -10.26531 -10.26463 -10.26459 -10.26310
 Alpha  occ. eigenvalues --  -10.26260 -10.26133 -10.26128 -10.25967 -10.25896
 Alpha  occ. eigenvalues --  -10.25837 -10.25835 -10.25722 -10.25571 -10.25527
 Alpha  occ. eigenvalues --  -10.25491 -10.25337 -10.25147 -10.24968 -10.24896
 Alpha  occ. eigenvalues --  -10.24371 -10.24320 -10.24165 -10.24066 -10.23018
 Alpha  occ. eigenvalues --   -3.11710  -1.86393  -1.85967  -1.85896  -1.21590
 Alpha  occ. eigenvalues --   -1.20233  -1.17502  -1.11328  -1.06878  -1.04435
 Alpha  occ. eigenvalues --   -1.02795  -1.01752  -0.98867  -0.91658  -0.91398
 Alpha  occ. eigenvalues --   -0.91063  -0.90308  -0.89719  -0.89521  -0.89385
 Alpha  occ. eigenvalues --   -0.88763  -0.87317  -0.86848  -0.85938  -0.85851
 Alpha  occ. eigenvalues --   -0.84800  -0.83912  -0.83373  -0.83023  -0.82798
 Alpha  occ. eigenvalues --   -0.81757  -0.81151  -0.79911  -0.79292  -0.77754
 Alpha  occ. eigenvalues --   -0.76946  -0.76143  -0.75800  -0.75685  -0.75247
 Alpha  occ. eigenvalues --   -0.75179  -0.74915  -0.74370  -0.73884  -0.71974
 Alpha  occ. eigenvalues --   -0.71237  -0.70358  -0.69469  -0.68111  -0.67439
 Alpha  occ. eigenvalues --   -0.66780  -0.66498  -0.65273  -0.64625  -0.64547
 Alpha  occ. eigenvalues --   -0.64080  -0.63699  -0.63290  -0.62725  -0.62199
 Alpha  occ. eigenvalues --   -0.61381  -0.60290  -0.59597  -0.59137  -0.58608
 Alpha  occ. eigenvalues --   -0.58131  -0.57936  -0.57622  -0.57270  -0.56817
 Alpha  occ. eigenvalues --   -0.56211  -0.56018  -0.55894  -0.55051  -0.54549
 Alpha  occ. eigenvalues --   -0.54416  -0.54214  -0.53816  -0.53327  -0.52988
 Alpha  occ. eigenvalues --   -0.52899  -0.52286  -0.51840  -0.51719  -0.51488
 Alpha  occ. eigenvalues --   -0.51418  -0.51356  -0.51100  -0.50849  -0.50538
 Alpha  occ. eigenvalues --   -0.50383  -0.50189  -0.49920  -0.49832  -0.49666
 Alpha  occ. eigenvalues --   -0.49065  -0.48836  -0.48618  -0.48507  -0.48310
 Alpha  occ. eigenvalues --   -0.48112  -0.48055  -0.48049  -0.47669  -0.47042
 Alpha  occ. eigenvalues --   -0.46793  -0.46338  -0.46174  -0.45803  -0.45714
 Alpha  occ. eigenvalues --   -0.45684  -0.45396  -0.45123  -0.45101  -0.44943
 Alpha  occ. eigenvalues --   -0.44783  -0.44741  -0.44345  -0.44077  -0.43815
 Alpha  occ. eigenvalues --   -0.43558  -0.43208  -0.43067  -0.42896  -0.42766
 Alpha  occ. eigenvalues --   -0.42699  -0.42534  -0.42523  -0.42353  -0.42285
 Alpha  occ. eigenvalues --   -0.42060  -0.41638  -0.41485  -0.41315  -0.41251
 Alpha  occ. eigenvalues --   -0.40978  -0.40787  -0.40672  -0.40041  -0.39799
 Alpha  occ. eigenvalues --   -0.39753  -0.39425  -0.39261  -0.39058  -0.38896
 Alpha  occ. eigenvalues --   -0.38522  -0.38468  -0.37961  -0.37910  -0.37785
 Alpha  occ. eigenvalues --   -0.37562  -0.37481  -0.37141  -0.36971  -0.36849
 Alpha  occ. eigenvalues --   -0.36469  -0.35904  -0.35731  -0.35609  -0.35279
 Alpha  occ. eigenvalues --   -0.35229  -0.35173  -0.34376  -0.34348  -0.34028
 Alpha  occ. eigenvalues --   -0.33015  -0.32723  -0.32171  -0.31098  -0.30355
 Alpha  occ. eigenvalues --   -0.29615  -0.28670  -0.28163  -0.27511  -0.23114
 Alpha  occ. eigenvalues --   -0.20873
 Alpha virt. eigenvalues --   -0.05359  -0.02666   0.02758   0.04628   0.05912
 Alpha virt. eigenvalues --    0.06614   0.06945   0.07115   0.07551   0.07868
 Alpha virt. eigenvalues --    0.08460   0.10668   0.11282   0.11720   0.11906

 Mulliken charges:
               1
     1  Mg   0.818344
     2  C    0.064962
     3  C   -0.209088
     4  C   -0.196125
     5  C   -0.166704
     6  N   -0.592770
     7  C    0.238480
     8  C   -0.153609
     9  C   -0.133751
    10  C    0.349288
    11  C   -0.288071
    12  C   -0.171161
    13  C   -0.271898
    14  C    0.618399
    15  O   -0.523199
    16  O   -0.444183
    17  N   -0.715122
    18  C    0.327908
    19  C    0.057817
    20  C    0.005523
    21  C    0.361717
    22  C   -0.344447
    23  C   -0.104519
    24  C   -0.228042
    25  N   -0.723178
    26  C    0.273537
    27  C   -0.019720
    28  C    0.031100
    29  C    0.270179
    30  C   -0.367127
    31  C   -0.231486
    32  C   -0.297261
    33  N   -0.710765
    34  C    0.291061
    35  C    0.011215
    36  C   -0.053077
    37  C    0.260391
    38  C   -0.374229
    39  C    0.384155
    40  O   -0.355819
    41  C   -0.335735
    42  C    0.615654
    43  O   -0.465797
    44  O   -0.407414
    45  C   -0.093644
    46  C    0.016104
    47  C   -0.143150
    48  C    0.112966
    49  C   -0.344126
    50  C   -0.221312
    51  C   -0.181933
    52  C   -0.170502
    53  C   -0.064478
    54  C   -0.329539
    55  C   -0.179770
    56  C   -0.190418
    57  C   -0.153068
    58  C   -0.039431
    59  C   -0.309133
    60  C   -0.166640
    61  C   -0.196275
    62  C   -0.162404
    63  C   -0.059869
    64  C   -0.287980
    65  C   -0.308592
    66  H    0.062133
    67  H    0.089632
    68  H    0.100285
    69  H    0.125766
    70  H    0.108852
    71  H    0.067632
    72  H    0.110476
    73  H    0.136703
    74  H    0.121021
    75  H    0.121568
    76  H    0.131787
    77  H    0.129088
    78  H    0.081942
    79  H    0.114255
    80  H    0.115466
    81  H    0.104228
    82  H    0.090658
    83  H    0.102120
    84  H    0.138345
    85  H    0.105991
    86  H    0.125695
    87  H    0.108122
    88  H    0.099392
    89  H    0.102864
    90  H    0.097440
    91  H    0.095816
    92  H    0.090353
    93  H    0.146085
    94  H    0.124765
    95  H    0.149720
    96  H    0.132394
    97  H    0.112604
    98  H    0.124778
    99  H    0.141184
   100  H    0.137127
   101  H    0.079430
   102  H    0.091939
   103  H    0.111518
   104  H    0.141108
   105  H    0.104265
   106  H    0.093353
   107  H    0.103832
   108  H    0.080523
   109  H    0.087966
   110  H    0.090893
   111  H    0.084922
   112  H    0.093074
   113  H    0.113585
   114  H    0.104696
   115  H    0.087765
   116  H    0.083124
   117  H    0.108773
   118  H    0.086631
   119  H    0.085550
   120  H    0.080197
   121  H    0.075310
   122  H    0.073788
   123  H    0.096226
   124  H    0.107648
   125  H    0.068764
   126  H    0.048689
   127  H    0.083280
   128  H    0.104937
   129  H    0.098477
   130  H    0.109764
   131  H    0.086704
   132  H    0.088929
   133  H    0.092956
   134  H    0.094086
   135  H    0.116937
   136  H    0.069341
   137  H    0.102496
 Sum of Mulliken charges =   0.00000

 Dipole moment (field-independent basis, Debye):
    X=              2.4942    Y=              3.3103    Z=              0.9036  Tot=              4.2421
 Quadrupole moment (field-independent basis, Debye-Ang):
   XX=           -359.3034   YY=           -385.4638   ZZ=           -398.5046
   XY=            -19.0682   XZ=              6.7327   YZ=             -4.5278

 Normal termination of Gaussian 09 at Sun Jun 30 10:44:56 2019.
