 Gaussian 09, Revision D.01,
 Gaussian 09:  ES64L-G09RevD.01 24-Apr-2013

 -------------------------------------
 # td=(NStates=1) CAM-B3LYP/6-31G(d,p)
 -------------------------------------

 --
 TD
 --
 Symbolic Z-matrix:
 Charge =  0 Multiplicity = 1

                         Standard orientation:
 ---------------------------------------------------------------------
 Center     Atomic      Atomic             Coordinates (Angstroms)
 Number     Number       Type             X           Y           Z
 ---------------------------------------------------------------------
      1         12           0       -7.128348    0.500111    0.131006
      2          6           0       -4.862657   -1.983390    0.505240
      3          6           0       -4.843557    2.844309    1.155952
      4          6           0       -9.413995    3.078187   -0.396251
      5          6           0       -9.600744   -1.800223   -0.827857
      6          7           0       -5.118519    0.410211    0.746354
      7          6           0       -4.333325   -0.740696    0.818646
      8          6           0       -2.911089   -0.410974    1.258008
      9          6           0       -3.022245    1.085425    1.709217
     10          6           0       -4.416450    1.511026    1.244831
     11          6           0       -2.891963    1.229448    3.266104
     12          6           0       -1.943671   -0.607270    0.067191
     13          6           0       -0.424015   -0.450541    0.463343
     14          6           0        0.484974   -0.508233   -0.703653
     15          8           0        0.224498   -0.800678   -1.781744
     16          8           0        1.829972   -0.341879   -0.262580
     17          7           0       -7.065654    2.655775    0.306730
     18          6           0       -6.069119    3.381942    0.734910
     19          6           0       -6.370867    4.821534    0.806843
     20          6           0       -7.696711    4.862489    0.440333
     21          6           0       -8.137864    3.401237    0.102069
     22          6           0       -5.435892    5.973997    1.413248
     23          6           0       -8.503515    6.112700    0.318962
     24          6           0       -8.196196    7.364521    0.091274
     25          7           0       -9.115566    0.729371   -0.447984
     26          6           0       -9.863078    1.743468   -0.576105
     27          6           0      -11.204306    1.474667   -1.073023
     28          6           0      -11.292167    0.140148   -1.204988
     29          6           0       -9.949659   -0.427558   -0.796412
     30          6           0      -12.302500    2.380562   -1.147391
     31          6           0      -12.433377   -0.731702   -1.742333
     32          6           0      -12.200251   -1.317669   -3.211674
     33          7           0       -7.310205   -1.462141   -0.119921
     34          6           0       -8.332924   -2.314769   -0.494314
     35          6           0       -7.861402   -3.691948   -0.528002
     36          6           0       -6.491607   -3.515494   -0.144768
     37          6           0       -6.222440   -2.190259    0.112607
     38          6           0       -8.490462   -4.876042   -0.901299
     39          6           0       -5.314672   -4.395859    0.216239
     40          8           0       -5.124349   -5.545936    0.061722
     41          6           0       -4.156323   -3.227929    0.579444
     42          6           0       -3.565084   -3.711369    1.908730
     43          8           0       -3.690937   -3.131032    3.007221
     44          8           0       -2.687989   -4.730366    1.722009
     45          6           0       -2.113330   -5.334174    2.928498
     46          6           0        2.782353   -0.625688   -1.353447
     47          6           0        4.160038   -0.270909   -0.598382
     48          6           0        5.102873    0.451533   -1.143072
     49          6           0        4.919746    1.312390   -2.363992
     50          6           0        6.446730    0.633803   -0.320231
     51          6           0        7.681942    0.052873   -1.009945
     52          6           0        8.936824    0.096364   -0.118148
     53          6           0       10.111361   -0.526272   -0.875686
     54          6           0        9.918941   -2.036676   -1.244041
     55          6           0       11.442504   -0.332459   -0.069351
     56          6           0       12.779515   -0.620041   -0.755487
     57          6           0       13.885191   -0.169086    0.226982
     58          6           0       15.294113   -0.311119   -0.347909
     59          6           0       15.638680   -1.797049   -0.797662
     60          6           0       16.316739    0.439994    0.441707
     61          6           0       17.823033    0.473598   -0.136852
     62          6           0       18.841247    1.120578    0.847081
     63          6           0       20.297034    1.355546    0.267784
     64          6           0       20.295262    1.938039   -1.132133
     65          6           0       21.125536    1.952197    1.341765
     66          1           0       -4.045598    3.413126    1.615210
     67          1           0      -10.116414    3.856719   -0.560712
     68          1           0      -10.311126   -2.631141   -0.982845
     69          1           0       -2.464122   -1.172625    2.015115
     70          1           0       -2.131436    1.732202    1.232651
     71          1           0       -1.842726    0.960449    3.668444
     72          1           0       -2.992418    2.318485    3.600975
     73          1           0       -3.656668    0.600962    3.742793
     74          1           0       -2.035173   -1.777692   -0.106449
     75          1           0       -2.230278   -0.191129   -0.954891
     76          1           0       -0.278482    0.542799    0.734296
     77          1           0        0.108155   -1.033325    1.244806
     78          1           0       -4.786112    6.382920    0.443712
     79          1           0       -6.092153    6.707586    1.873580
     80          1           0       -4.659912    5.671986    2.047024
     81          1           0       -9.526882    5.888011    0.293925
     82          1           0       -9.069870    7.971532   -0.179350
     83          1           0       -7.173472    7.757436   -0.136754
     84          1           0      -12.136617    3.116385   -2.033385
     85          1           0      -13.298804    1.956175   -1.444675
     86          1           0      -12.671115    3.080131   -0.357527
     87          1           0      -12.504583   -1.549453   -1.176733
     88          1           0      -13.271341   -0.189542   -1.669693
     89          1           0      -12.945342   -1.980836   -3.511398
     90          1           0      -12.065789   -0.616270   -4.136033
     91          1           0      -11.152333   -1.906452   -3.135095
     92          1           0       -9.101835   -5.041164   -1.907315
     93          1           0       -7.784750   -5.774794   -1.025971
     94          1           0       -9.425249   -5.226925   -0.041133
     95          1           0       -3.318098   -3.129102   -0.080282
     96          1           0       -1.370611   -4.624201    3.357134
     97          1           0       -2.955817   -5.743457    3.526336
     98          1           0       -1.554949   -6.139799    2.637702
     99          1           0        2.849299   -1.641422   -1.688243
    100          1           0        2.515699    0.121996   -2.145919
    101          1           0        4.179562   -0.943703    0.456923
    102          1           0        3.978229    1.152563   -2.707755
    103          1           0        4.990726    2.327050   -2.081358
    104          1           0        5.502040    0.932922   -3.092300
    105          1           0        6.393515    1.811067   -0.114399
    106          1           0        6.190526    0.155648    0.679479
    107          1           0        7.351840   -0.972169   -1.337246
    108          1           0        7.886472    0.518316   -1.922802
    109          1           0        9.079618    1.064028    0.160338
    110          1           0        8.838499   -0.445632    0.783271
    111          1           0       10.110951   -0.045185   -1.781513
    112          1           0        9.057424   -2.229795   -2.051767
    113          1           0       10.814649   -2.663021   -1.698678
    114          1           0        9.785277   -2.720807   -0.298519
    115          1           0       11.704165    0.694222    0.137604
    116          1           0       11.297830   -0.813774    0.926611
    117          1           0       12.995230   -1.615480   -1.041748
    118          1           0       12.824641    0.097294   -1.490343
    119          1           0       13.918183    0.953315    0.558373
    120          1           0       13.722691   -0.535516    1.103032
    121          1           0       15.134318    0.254474   -1.327764
    122          1           0       15.473629   -2.428657    0.110431
    123          1           0       15.034387   -2.065684   -1.680276
    124          1           0       16.685091   -1.903700   -1.181343
    125          1           0       16.062389    1.542663    0.671616
    126          1           0       16.180761   -0.181431    1.419907
    127          1           0       18.284318   -0.476127   -0.580801
    128          1           0       17.775114    1.134781   -1.092621
    129          1           0       18.316246    2.207766    0.978439
    130          1           0       18.842978    0.678103    1.801765
    131          1           0       20.771442    0.193586   -0.069177
    132          1           0       19.874582    2.954101   -0.920002
    133          1           0       21.364697    2.166004   -1.429401
    134          1           0       19.801860    1.301139   -1.802358
    135          1           0       21.016836    1.658938    2.289450
    136          1           0       22.227269    1.791756    1.090495
    137          1           0       20.926076    2.963579    1.318170
 ---------------------------------------------------------------------

 SCF Done:  E(RCAM-B3LYP) =  -2932.71384685     A.U. after   18 cycles

 Excitation energies and oscillator strengths:

 Excited State   1:      Singlet-A      2.1378 eV  579.95 nm  f=0.2444  <S**2>=0.000
     240 -> 242       -0.20270
     240 -> 243        0.21187
     241 -> 242        0.62084
     241 -> 243        0.14426
 This state for optimization and/or second-order correction.
 Total Energy, E(TD-HF/TD-KS) =  -2932.63528283
 Copying the excited state density for this state as the 1-particle RhoCI density.

 The electronic state is 1-A.
 Alpha  occ. eigenvalues --  -46.85307 -19.25819 -19.24060 -19.21594 -19.21229
 Alpha  occ. eigenvalues --  -19.19796 -14.41807 -14.40214 -14.40040 -14.39054
 Alpha  occ. eigenvalues --  -10.38905 -10.38109 -10.35444 -10.31665 -10.31340
 Alpha  occ. eigenvalues --  -10.31001 -10.30960 -10.30684 -10.30199 -10.29802
 Alpha  occ. eigenvalues --  -10.29289 -10.29171 -10.28469 -10.28385 -10.28353
 Alpha  occ. eigenvalues --  -10.28302 -10.28275 -10.28151 -10.27970 -10.27919
 Alpha  occ. eigenvalues --  -10.27900 -10.27447 -10.27358 -10.27319 -10.27226
 Alpha  occ. eigenvalues --  -10.26936 -10.26926 -10.26806 -10.26720 -10.26694
 Alpha  occ. eigenvalues --  -10.26650 -10.26646 -10.26628 -10.26598 -10.26582
 Alpha  occ. eigenvalues --  -10.26473 -10.26280 -10.26205 -10.26072 -10.25853
 Alpha  occ. eigenvalues --  -10.25787 -10.25768 -10.25567 -10.25539 -10.25447
 Alpha  occ. eigenvalues --  -10.25136 -10.25113 -10.24760 -10.24671 -10.24419
 Alpha  occ. eigenvalues --  -10.23832 -10.23774 -10.23714 -10.23435 -10.23209
 Alpha  occ. eigenvalues --   -3.14210  -1.88927  -1.88450  -1.88379  -1.18539
 Alpha  occ. eigenvalues --   -1.16230  -1.13421  -1.08879  -1.06601  -1.06071
 Alpha  occ. eigenvalues --   -1.04248  -1.03683  -1.02029  -0.92386  -0.90765
 Alpha  occ. eigenvalues --   -0.89973  -0.89492  -0.89369  -0.88991  -0.88909
 Alpha  occ. eigenvalues --   -0.88258  -0.88112  -0.87081  -0.87030  -0.85492
 Alpha  occ. eigenvalues --   -0.84878  -0.84012  -0.83692  -0.83116  -0.81953
 Alpha  occ. eigenvalues --   -0.81366  -0.80918  -0.80013  -0.79363  -0.77823
 Alpha  occ. eigenvalues --   -0.77460  -0.77397  -0.76980  -0.76182  -0.75751
 Alpha  occ. eigenvalues --   -0.75005  -0.74940  -0.73653  -0.72687  -0.72051
 Alpha  occ. eigenvalues --   -0.71580  -0.70652  -0.70001  -0.68461  -0.67739
 Alpha  occ. eigenvalues --   -0.66793  -0.66248  -0.65478  -0.64876  -0.64502
 Alpha  occ. eigenvalues --   -0.64097  -0.63833  -0.61556  -0.61461  -0.61193
 Alpha  occ. eigenvalues --   -0.60740  -0.60467  -0.59764  -0.59531  -0.58880
 Alpha  occ. eigenvalues --   -0.58468  -0.57990  -0.57345  -0.56640  -0.56321
 Alpha  occ. eigenvalues --   -0.55923  -0.55471  -0.55418  -0.55137  -0.54522
 Alpha  occ. eigenvalues --   -0.54174  -0.53823  -0.53544  -0.53446  -0.53334
 Alpha  occ. eigenvalues --   -0.52796  -0.52686  -0.52330  -0.51964  -0.51752
 Alpha  occ. eigenvalues --   -0.51711  -0.51606  -0.50928  -0.50645  -0.50370
 Alpha  occ. eigenvalues --   -0.50249  -0.50038  -0.49794  -0.49589  -0.49294
 Alpha  occ. eigenvalues --   -0.48998  -0.48878  -0.48699  -0.48397  -0.48142
 Alpha  occ. eigenvalues --   -0.48035  -0.47794  -0.47512  -0.47333  -0.47136
 Alpha  occ. eigenvalues --   -0.47031  -0.46717  -0.46384  -0.46138  -0.46051
 Alpha  occ. eigenvalues --   -0.45810  -0.45625  -0.45605  -0.45420  -0.45303
 Alpha  occ. eigenvalues --   -0.45143  -0.44898  -0.44690  -0.44247  -0.44124
 Alpha  occ. eigenvalues --   -0.43816  -0.43718  -0.43552  -0.43343  -0.43292
 Alpha  occ. eigenvalues --   -0.43226  -0.42898  -0.42636  -0.42584  -0.42432
 Alpha  occ. eigenvalues --   -0.42201  -0.41917  -0.41760  -0.41558  -0.41121
 Alpha  occ. eigenvalues --   -0.41048  -0.40676  -0.40499  -0.40491  -0.40369
 Alpha  occ. eigenvalues --   -0.40230  -0.40024  -0.39873  -0.39591  -0.39475
 Alpha  occ. eigenvalues --   -0.39271  -0.39179  -0.38044  -0.37700  -0.37646
 Alpha  occ. eigenvalues --   -0.37352  -0.37221  -0.37148  -0.37046  -0.36840
 Alpha  occ. eigenvalues --   -0.36270  -0.36047  -0.35849  -0.35451  -0.35271
 Alpha  occ. eigenvalues --   -0.35132  -0.34438  -0.33850  -0.33558  -0.33351
 Alpha  occ. eigenvalues --   -0.33007  -0.32800  -0.32348  -0.30753  -0.29969
 Alpha  occ. eigenvalues --   -0.29061  -0.28962  -0.28375  -0.28073  -0.23006
 Alpha  occ. eigenvalues --   -0.21210
 Alpha virt. eigenvalues --   -0.06271  -0.02773   0.02123   0.04202   0.05721
 Alpha virt. eigenvalues --    0.06170   0.06492   0.07330   0.07711   0.08180
 Alpha virt. eigenvalues --    0.08877   0.10172   0.10973   0.11784   0.12092

 Mulliken charges:
               1
     1  Mg   0.829728
     2  C    0.096050
     3  C   -0.201712
     4  C   -0.175781
     5  C   -0.165359
     6  N   -0.659565
     7  C    0.314315
     8  C   -0.137806
     9  C   -0.154389
    10  C    0.333182
    11  C   -0.304882
    12  C   -0.195864
    13  C   -0.265883
    14  C    0.591044
    15  O   -0.416044
    16  O   -0.531933
    17  N   -0.683150
    18  C    0.320210
    19  C    0.030854
    20  C   -0.056633
    21  C    0.341839
    22  C   -0.346034
    23  C   -0.062335
    24  C   -0.245879
    25  N   -0.665970
    26  C    0.344035
    27  C    0.060105
    28  C    0.014586
    29  C    0.221169
    30  C   -0.414014
    31  C   -0.203095
    32  C   -0.315579
    33  N   -0.777177
    34  C    0.234008
    35  C    0.120507
    36  C   -0.082503
    37  C    0.369824
    38  C   -0.429215
    39  C    0.382152
    40  O   -0.412074
    41  C   -0.359690
    42  C    0.597861
    43  O   -0.496815
    44  O   -0.463659
    45  C   -0.072903
    46  C    0.005783
    47  C   -0.123864
    48  C    0.069320
    49  C   -0.335603
    50  C   -0.214345
    51  C   -0.184096
    52  C   -0.159131
    53  C   -0.060156
    54  C   -0.309366
    55  C   -0.183755
    56  C   -0.176466
    57  C   -0.187594
    58  C   -0.056311
    59  C   -0.315578
    60  C   -0.163875
    61  C   -0.192195
    62  C   -0.153309
    63  C   -0.038150
    64  C   -0.295611
    65  C   -0.304103
    66  H    0.075119
    67  H    0.091084
    68  H    0.107835
    69  H    0.132003
    70  H    0.096280
    71  H    0.102449
    72  H    0.097505
    73  H    0.136765
    74  H    0.094024
    75  H    0.133415
    76  H    0.140928
    77  H    0.150017
    78  H    0.099757
    79  H    0.137630
    80  H    0.131263
    81  H    0.083617
    82  H    0.102245
    83  H    0.107726
    84  H    0.101932
    85  H    0.114279
    86  H    0.126014
    87  H    0.121283
    88  H    0.104022
    89  H    0.116741
    90  H    0.100607
    91  H    0.091621
    92  H    0.114008
    93  H    0.147688
    94  H    0.077981
    95  H    0.161661
    96  H    0.125101
    97  H    0.137078
    98  H    0.133385
    99  H    0.131292
   100  H    0.121448
   101  H    0.081339
   102  H    0.103713
   103  H    0.123404
   104  H    0.125742
   105  H    0.071867
   106  H    0.096080
   107  H    0.100560
   108  H    0.101703
   109  H    0.105316
   110  H    0.095404
   111  H    0.089122
   112  H    0.088286
   113  H    0.090845
   114  H    0.086707
   115  H    0.092762
   116  H    0.080691
   117  H    0.104203
   118  H    0.108275
   119  H    0.066135
   120  H    0.098815
   121  H    0.064582
   122  H    0.099077
   123  H    0.109736
   124  H    0.099882
   125  H    0.090455
   126  H    0.073138
   127  H    0.087647
   128  H    0.086431
   129  H    0.055133
   130  H    0.104833
   131  H    0.020701
   132  H    0.090084
   133  H    0.096467
   134  H    0.122614
   135  H    0.117495
   136  H    0.090719
   137  H    0.107112
 Sum of Mulliken charges =   0.00000

 Dipole moment (field-independent basis, Debye):
    X=              0.4019    Y=              4.3100    Z=              0.2017  Tot=              4.3334
 Quadrupole moment (field-independent basis, Debye-Ang):
   XX=           -339.3511   YY=           -388.0543   ZZ=           -397.5210
   XY=            -17.8711   XZ=             10.9096   YZ=             -1.8546

 Normal termination of Gaussian 09 at Mon Jul  1 06:16:19 2019.
