 Gaussian 09, Revision D.01,
 Gaussian 09:  ES64L-G09RevD.01 24-Apr-2013

 -------------------------------------
 # td=(NStates=1) CAM-B3LYP/6-31G(d,p)
 -------------------------------------

 --
 TD
 --
 Symbolic Z-matrix:
 Charge =  0 Multiplicity = 1

                         Standard orientation:
 ---------------------------------------------------------------------
 Center     Atomic      Atomic             Coordinates (Angstroms)
 Number     Number       Type             X           Y           Z
 ---------------------------------------------------------------------
      1         12           0       -7.130500    0.583820    0.131530
      2          6           0       -4.730455   -1.982760    0.408336
      3          6           0       -4.877504    2.860556    1.318324
      4          6           0       -9.448826    3.053204   -0.284336
      5          6           0       -9.467238   -1.817119   -1.035838
      6          7           0       -5.099865    0.400085    0.674734
      7          6           0       -4.314229   -0.755464    0.699826
      8          6           0       -2.922850   -0.375560    1.164363
      9          6           0       -3.081623    1.068272    1.692000
     10          6           0       -4.443724    1.491323    1.131960
     11          6           0       -3.071114    1.192719    3.345182
     12          6           0       -1.859509   -0.572229    0.114085
     13          6           0       -0.311059   -0.380459    0.506455
     14          6           0        0.525982   -0.602197   -0.632139
     15          8           0        0.275211   -0.905793   -1.788304
     16          8           0        1.802706   -0.414782   -0.232064
     17          7           0       -6.984012    2.575416    0.358136
     18          6           0       -6.040758    3.391851    0.819895
     19          6           0       -6.389495    4.734749    0.950633
     20          6           0       -7.741255    4.808490    0.488771
     21          6           0       -8.135034    3.484158    0.163406
     22          6           0       -5.580627    5.788627    1.517829
     23          6           0       -8.612636    5.853602    0.341417
     24          6           0       -8.264777    7.069243    0.092044
     25          7           0       -9.104916    0.607428   -0.463716
     26          6           0       -9.917487    1.642762   -0.622199
     27          6           0      -11.181749    1.430183   -1.068580
     28          6           0      -11.248656   -0.017329   -1.144421
     29          6           0       -9.956152   -0.461468   -0.856185
     30          6           0      -12.324868    2.365590   -1.470904
     31          6           0      -12.412649   -0.795481   -1.624293
     32          6           0      -12.427103   -0.995842   -3.119534
     33          7           0       -7.232871   -1.385628   -0.229529
     34          6           0       -8.191246   -2.291895   -0.605683
     35          6           0       -7.698360   -3.700724   -0.532128
     36          6           0       -6.343775   -3.507512   -0.298128
     37          6           0       -6.160713   -2.215293   -0.029482
     38          6           0       -8.506767   -4.911426   -0.898503
     39          6           0       -5.246766   -4.392672    0.100955
     40          8           0       -5.163262   -5.522152    0.156731
     41          6           0       -4.100800   -3.354139    0.536136
     42          6           0       -3.488528   -3.688393    1.857000
     43          8           0       -3.753932   -3.062797    2.872775
     44          8           0       -2.633701   -4.754628    1.873478
     45          6           0       -1.927801   -5.135470    3.115432
     46          6           0        2.765876   -0.379262   -1.286899
     47          6           0        4.123184   -0.264920   -0.700658
     48          6           0        5.066776    0.566887   -1.066382
     49          6           0        4.965115    1.528970   -2.187318
     50          6           0        6.350520    0.503309   -0.259617
     51          6           0        7.587350   -0.094424   -1.018018
     52          6           0        8.790215    0.073157   -0.188341
     53          6           0       10.173235   -0.475706   -0.907075
     54          6           0       10.109295   -1.948864   -1.221887
     55          6           0       11.345345   -0.151205    0.014626
     56          6           0       12.744521   -0.395300   -0.787441
     57          6           0       13.874360   -0.096493    0.181562
     58          6           0       15.277819   -0.095397   -0.499819
     59          6           0       15.594377   -1.645222   -0.829308
     60          6           0       16.289133    0.414808    0.478432
     61          6           0       17.757656    0.540991   -0.065190
     62          6           0       18.820178    1.153422    0.795339
     63          6           0       20.219636    1.005198    0.242416
     64          6           0       20.337809    1.904086   -1.060287
     65          6           0       21.224453    1.801437    1.270262
     66          1           0       -3.957298    3.505014    1.727307
     67          1           0      -10.097846    3.891926   -0.395520
     68          1           0      -10.147990   -2.649829   -1.312780
     69          1           0       -2.776409   -0.933658    2.027515
     70          1           0       -2.276868    1.633622    1.304918
     71          1           0       -2.192951    0.798971    3.587033
     72          1           0       -3.140454    2.228775    3.662200
     73          1           0       -3.947791    0.509341    3.732801
     74          1           0       -1.996765   -1.526670   -0.363530
     75          1           0       -2.037594   -0.011954   -0.877580
     76          1           0       -0.174069    0.706137    0.922354
     77          1           0       -0.007686   -1.165321    1.261159
     78          1           0       -4.794571    6.318156    0.818354
     79          1           0       -6.264126    6.701555    1.929430
     80          1           0       -5.131067    5.119326    2.323555
     81          1           0       -9.674298    5.668509    0.533861
     82          1           0       -9.079188    7.898518   -0.265320
     83          1           0       -7.198788    7.485518    0.051445
     84          1           0      -11.964985    3.067750   -2.282498
     85          1           0      -13.190078    1.679639   -1.840267
     86          1           0      -12.713366    3.103792   -0.563799
     87          1           0      -12.299561   -1.803781   -1.303444
     88          1           0      -13.536821   -0.329711   -1.405872
     89          1           0      -13.192102   -1.745633   -3.400499
     90          1           0      -12.748269   -0.072694   -3.744484
     91          1           0      -11.493126   -1.257363   -3.523879
     92          1           0       -8.669909   -4.915228   -1.900784
     93          1           0       -7.900841   -5.701199   -0.561775
     94          1           0       -9.268121   -5.218625   -0.294458
     95          1           0       -3.269848   -3.637521   -0.256533
     96          1           0       -1.340758   -4.317690    3.855273
     97          1           0       -2.714009   -5.548024    3.629094
     98          1           0       -0.976722   -5.798492    2.888340
     99          1           0        2.861598   -1.287606   -1.642149
    100          1           0        2.536876    0.290563   -2.097802
    101          1           0        4.155748   -0.826209    0.313540
    102          1           0        3.940158    1.383974   -2.820040
    103          1           0        4.865752    2.768377   -1.614001
    104          1           0        6.029382    1.425424   -2.841099
    105          1           0        6.492972    1.509213    0.117032
    106          1           0        6.227145   -0.212596    0.625401
    107          1           0        7.305576   -1.105058   -1.358383
    108          1           0        7.729242    0.492186   -1.970524
    109          1           0        8.958028    1.188315    0.163202
    110          1           0        8.648214   -0.620212    0.792180
    111          1           0       10.219867   -0.049390   -1.894220
    112          1           0        9.099815   -2.123334   -1.781039
    113          1           0       10.941764   -2.220280   -1.742571
    114          1           0       10.047484   -2.684874   -0.360078
    115          1           0       11.312282    0.927600    0.204531
    116          1           0       11.393655   -0.791002    0.917960
    117          1           0       12.939980   -1.321890   -1.206296
    118          1           0       12.601722    0.188736   -1.686855
    119          1           0       13.822257    0.818766    0.628582
    120          1           0       13.934819   -0.746171    0.895006
    121          1           0       15.176448    0.461119   -1.448403
    122          1           0       15.386410   -2.267736    0.067248
    123          1           0       14.981297   -2.050130   -1.517954
    124          1           0       16.558515   -1.755314   -1.083204
    125          1           0       15.971077    1.521887    0.804056
    126          1           0       16.383166   -0.430903    1.293513
    127          1           0       17.899346   -0.558677   -0.234447
    128          1           0       17.899135    0.986633   -1.294782
    129          1           0       18.472836    2.190299    1.038245
    130          1           0       18.832177    0.689853    1.894711
    131          1           0       20.490173   -0.003716    0.037625
    132          1           0       20.130653    2.976366   -1.092578
    133          1           0       21.370268    1.705274   -1.761965
    134          1           0       19.609875    1.596390   -1.766518
    135          1           0       21.038542    1.383771    2.116832
    136          1           0       22.113728    1.558347    0.825680
    137          1           0       20.997554    2.838924    1.224734
 ---------------------------------------------------------------------

 SCF Done:  E(RCAM-B3LYP) =  -2932.61595222     A.U. after   17 cycles

 Excitation energies and oscillator strengths:

 Excited State   1:      Singlet-A      2.1604 eV  573.90 nm  f=0.1430  <S**2>=0.000
     240 -> 242       -0.14673
     240 -> 243        0.28548
     241 -> 242        0.61333
 This state for optimization and/or second-order correction.
 Total Energy, E(TD-HF/TD-KS) =  -2932.53655922
 Copying the excited state density for this state as the 1-particle RhoCI density.

 The electronic state is 1-A.
 Alpha  occ. eigenvalues --  -46.83496 -19.26256 -19.25577 -19.21932 -19.20818
 Alpha  occ. eigenvalues --  -19.20142 -14.40805 -14.39640 -14.38803 -14.38539
 Alpha  occ. eigenvalues --  -10.39303 -10.38788 -10.35509 -10.33441 -10.31214
 Alpha  occ. eigenvalues --  -10.30670 -10.29776 -10.29614 -10.29437 -10.29387
 Alpha  occ. eigenvalues --  -10.29030 -10.29002 -10.28878 -10.28863 -10.28858
 Alpha  occ. eigenvalues --  -10.28708 -10.28701 -10.28677 -10.28274 -10.27996
 Alpha  occ. eigenvalues --  -10.27891 -10.27547 -10.27177 -10.27053 -10.26870
 Alpha  occ. eigenvalues --  -10.26791 -10.26774 -10.26771 -10.26713 -10.26597
 Alpha  occ. eigenvalues --  -10.26587 -10.26565 -10.26279 -10.26237 -10.26173
 Alpha  occ. eigenvalues --  -10.25959 -10.25899 -10.25827 -10.25793 -10.25708
 Alpha  occ. eigenvalues --  -10.25662 -10.25645 -10.25603 -10.25348 -10.25345
 Alpha  occ. eigenvalues --  -10.25342 -10.25135 -10.24998 -10.24413 -10.24297
 Alpha  occ. eigenvalues --  -10.24259 -10.24241 -10.22832 -10.22247 -10.22148
 Alpha  occ. eigenvalues --   -3.12593  -1.87293  -1.86852  -1.86770  -1.18385
 Alpha  occ. eigenvalues --   -1.17300  -1.16464  -1.08639  -1.07919  -1.04353
 Alpha  occ. eigenvalues --   -1.03091  -1.02921  -1.01901  -0.92280  -0.91425
 Alpha  occ. eigenvalues --   -0.91035  -0.90446  -0.89439  -0.88930  -0.88742
 Alpha  occ. eigenvalues --   -0.88090  -0.87890  -0.87208  -0.86336  -0.86061
 Alpha  occ. eigenvalues --   -0.84981  -0.84469  -0.83240  -0.82872  -0.82576
 Alpha  occ. eigenvalues --   -0.81630  -0.80910  -0.79887  -0.79728  -0.78654
 Alpha  occ. eigenvalues --   -0.77525  -0.76793  -0.76120  -0.76060  -0.75500
 Alpha  occ. eigenvalues --   -0.74768  -0.74426  -0.74316  -0.72854  -0.71990
 Alpha  occ. eigenvalues --   -0.71416  -0.70624  -0.69487  -0.69115  -0.68439
 Alpha  occ. eigenvalues --   -0.66802  -0.66468  -0.65308  -0.64851  -0.64253
 Alpha  occ. eigenvalues --   -0.63569  -0.63452  -0.63283  -0.62628  -0.61450
 Alpha  occ. eigenvalues --   -0.61242  -0.60361  -0.60062  -0.59744  -0.58959
 Alpha  occ. eigenvalues --   -0.58482  -0.57766  -0.57378  -0.56857  -0.56286
 Alpha  occ. eigenvalues --   -0.55992  -0.55434  -0.55033  -0.54797  -0.54630
 Alpha  occ. eigenvalues --   -0.54155  -0.53867  -0.53662  -0.53342  -0.53117
 Alpha  occ. eigenvalues --   -0.52753  -0.52727  -0.52090  -0.51952  -0.51914
 Alpha  occ. eigenvalues --   -0.51456  -0.51222  -0.51094  -0.50873  -0.50701
 Alpha  occ. eigenvalues --   -0.50367  -0.50281  -0.49674  -0.49608  -0.49574
 Alpha  occ. eigenvalues --   -0.49338  -0.49179  -0.48937  -0.48542  -0.48282
 Alpha  occ. eigenvalues --   -0.47904  -0.47680  -0.47535  -0.47394  -0.46895
 Alpha  occ. eigenvalues --   -0.46739  -0.46404  -0.46393  -0.45757  -0.45642
 Alpha  occ. eigenvalues --   -0.45549  -0.45324  -0.45244  -0.45083  -0.44688
 Alpha  occ. eigenvalues --   -0.44545  -0.44234  -0.44124  -0.44084  -0.43960
 Alpha  occ. eigenvalues --   -0.43770  -0.43732  -0.43432  -0.43325  -0.43219
 Alpha  occ. eigenvalues --   -0.43009  -0.42957  -0.42634  -0.42452  -0.42257
 Alpha  occ. eigenvalues --   -0.41893  -0.41771  -0.41593  -0.41412  -0.41362
 Alpha  occ. eigenvalues --   -0.41256  -0.41045  -0.40819  -0.40476  -0.40268
 Alpha  occ. eigenvalues --   -0.40117  -0.39864  -0.39779  -0.39485  -0.39379
 Alpha  occ. eigenvalues --   -0.38966  -0.38760  -0.38280  -0.37831  -0.37679
 Alpha  occ. eigenvalues --   -0.37510  -0.37466  -0.37218  -0.36907  -0.36863
 Alpha  occ. eigenvalues --   -0.36672  -0.36194  -0.35936  -0.35566  -0.35472
 Alpha  occ. eigenvalues --   -0.35313  -0.35021  -0.33898  -0.33598  -0.33453
 Alpha  occ. eigenvalues --   -0.33068  -0.31912  -0.31875  -0.30705  -0.30104
 Alpha  occ. eigenvalues --   -0.29852  -0.29158  -0.27340  -0.26729  -0.22807
 Alpha  occ. eigenvalues --   -0.21727
 Alpha virt. eigenvalues --   -0.06107  -0.03763   0.02689   0.04671   0.05770
 Alpha virt. eigenvalues --    0.05840   0.06346   0.06624   0.06895   0.07563
 Alpha virt. eigenvalues --    0.08924   0.10315   0.10494   0.11154   0.11686

 Mulliken charges:
               1
     1  Mg   0.809100
     2  C    0.080930
     3  C   -0.246025
     4  C   -0.177406
     5  C   -0.167697
     6  N   -0.655926
     7  C    0.276789
     8  C   -0.146970
     9  C   -0.170371
    10  C    0.351347
    11  C   -0.308069
    12  C   -0.198220
    13  C   -0.272632
    14  C    0.634334
    15  O   -0.490152
    16  O   -0.493920
    17  N   -0.712343
    18  C    0.380357
    19  C    0.049092
    20  C    0.058003
    21  C    0.244957
    22  C   -0.377109
    23  C   -0.089118
    24  C   -0.252198
    25  N   -0.673095
    26  C    0.306237
    27  C    0.043845
    28  C    0.030731
    29  C    0.249291
    30  C   -0.351977
    31  C   -0.243922
    32  C   -0.306399
    33  N   -0.688298
    34  C    0.237468
    35  C   -0.001014
    36  C   -0.031073
    37  C    0.309948
    38  C   -0.376797
    39  C    0.386202
    40  O   -0.383700
    41  C   -0.344149
    42  C    0.633351
    43  O   -0.478367
    44  O   -0.479757
    45  C   -0.068995
    46  C    0.052878
    47  C   -0.171463
    48  C    0.148621
    49  C   -0.323332
    50  C   -0.221015
    51  C   -0.173442
    52  C   -0.158796
    53  C   -0.066865
    54  C   -0.303752
    55  C   -0.168067
    56  C   -0.207471
    57  C   -0.146893
    58  C   -0.071676
    59  C   -0.332302
    60  C   -0.169628
    61  C   -0.157648
    62  C   -0.150640
    63  C   -0.074482
    64  C   -0.312419
    65  C   -0.292059
    66  H    0.077239
    67  H    0.080953
    68  H    0.101762
    69  H    0.131951
    70  H    0.098001
    71  H    0.121740
    72  H    0.113205
    73  H    0.120609
    74  H    0.121643
    75  H    0.114747
    76  H    0.138386
    77  H    0.147076
    78  H    0.116029
    79  H    0.105387
    80  H    0.120979
    81  H    0.110723
    82  H    0.087524
    83  H    0.105097
    84  H    0.124014
    85  H    0.107040
    86  H    0.092867
    87  H    0.109852
    88  H    0.091159
    89  H    0.099328
    90  H    0.090689
    91  H    0.118279
    92  H    0.142749
    93  H    0.142634
    94  H    0.131635
    95  H    0.152216
    96  H    0.101214
    97  H    0.152882
    98  H    0.124196
    99  H    0.132067
   100  H    0.111416
   101  H    0.092769
   102  H    0.104309
   103  H    0.068612
   104  H    0.101057
   105  H    0.098234
   106  H    0.093059
   107  H    0.108305
   108  H    0.081167
   109  H    0.081180
   110  H    0.068240
   111  H    0.088731
   112  H    0.082123
   113  H    0.113345
   114  H    0.088574
   115  H    0.094734
   116  H    0.095815
   117  H    0.099134
   118  H    0.089444
   119  H    0.087342
   120  H    0.097125
   121  H    0.086142
   122  H    0.089753
   123  H    0.109091
   124  H    0.110669
   125  H    0.070202
   126  H    0.086047
   127  H    0.085355
   128  H    0.046869
   129  H    0.092980
   130  H    0.066338
   131  H    0.101247
   132  H    0.109303
   133  H    0.057665
   134  H    0.102177
   135  H    0.101846
   136  H    0.109663
   137  H    0.108233
 Sum of Mulliken charges =   0.00000

 Dipole moment (field-independent basis, Debye):
    X=              1.1068    Y=              2.3203    Z=              0.5911  Tot=              2.6379
 Quadrupole moment (field-independent basis, Debye-Ang):
   XX=           -361.8110   YY=           -381.6438   ZZ=           -398.8551
   XY=            -16.8740   XZ=             11.9669   YZ=             -3.2296

 Normal termination of Gaussian 09 at Mon Jul  1 11:46:21 2019.
