 Gaussian 09, Revision D.01,
 Gaussian 09:  ES64L-G09RevD.01 24-Apr-2013

 -------------------------------------
 # td=(NStates=1) CAM-B3LYP/6-31G(d,p)
 -------------------------------------

 --
 TD
 --
 Symbolic Z-matrix:
 Charge =  0 Multiplicity = 1

                         Standard orientation:
 ---------------------------------------------------------------------
 Center     Atomic      Atomic             Coordinates (Angstroms)
 Number     Number       Type             X           Y           Z
 ---------------------------------------------------------------------
      1         12           0       -7.101716    0.640122   -0.026221
      2          6           0       -4.842855   -1.895001    0.482844
      3          6           0       -4.793555    2.765775    1.209053
      4          6           0       -9.385443    3.140162   -0.291796
      5          6           0       -9.481038   -1.628440   -0.877164
      6          7           0       -5.095073    0.497076    0.708342
      7          6           0       -4.303753   -0.703676    0.785107
      8          6           0       -2.916662   -0.373139    1.209289
      9          6           0       -3.033575    1.091005    1.588749
     10          6           0       -4.376689    1.484192    1.156502
     11          6           0       -2.861509    1.262753    3.179733
     12          6           0       -1.872936   -0.623713    0.098385
     13          6           0       -0.395179   -0.556790    0.569212
     14          6           0        0.596384   -0.789650   -0.559653
     15          8           0        0.330674   -1.341466   -1.609525
     16          8           0        1.798645   -0.417883   -0.176965
     17          7           0       -6.986305    2.609834    0.313227
     18          6           0       -5.946600    3.333194    0.783971
     19          6           0       -6.343900    4.721936    0.895931
     20          6           0       -7.611761    4.867692    0.349321
     21          6           0       -8.077144    3.470163    0.092714
     22          6           0       -5.415498    5.852073    1.409358
     23          6           0       -8.576965    5.984727    0.292900
     24          6           0       -8.219408    7.184271    0.107365
     25          7           0       -9.080456    0.696801   -0.467524
     26          6           0       -9.861020    1.860637   -0.646959
     27          6           0      -11.160909    1.524979   -1.030138
     28          6           0      -11.227264    0.157815   -1.232553
     29          6           0       -9.851974   -0.350575   -0.871365
     30          6           0      -12.319085    2.491712   -1.265441
     31          6           0      -12.325764   -0.645356   -1.587919
     32          6           0      -12.443684   -0.839798   -3.270515
     33          7           0       -7.211412   -1.342796   -0.252692
     34          6           0       -8.234946   -2.134095   -0.696263
     35          6           0       -7.921179   -3.606471   -0.546760
     36          6           0       -6.501135   -3.604702   -0.053457
     37          6           0       -6.178430   -2.175970    0.082810
     38          6           0       -8.728919   -4.775774   -0.823402
     39          6           0       -5.341977   -4.367264    0.172492
     40          8           0       -5.199420   -5.566330    0.084277
     41          6           0       -4.251984   -3.305757    0.480900
     42          6           0       -3.671741   -3.660197    1.903373
     43          8           0       -4.015952   -3.236608    2.940142
     44          8           0       -2.785036   -4.657889    1.830332
     45          6           0       -2.284749   -5.152623    3.037728
     46          6           0        2.804516   -0.728432   -1.234292
     47          6           0        4.159779   -0.489771   -0.593095
     48          6           0        5.141082    0.362345   -1.081682
     49          6           0        4.994988    1.027462   -2.418361
     50          6           0        6.472952    0.306601   -0.284682
     51          6           0        7.696197   -0.278269   -0.888889
     52          6           0        8.868438   -0.336466   -0.067882
     53          6           0       10.184807   -0.808778   -0.855908
     54          6           0       10.023127   -2.203878   -1.287218
     55          6           0       11.442072   -0.467265    0.024793
     56          6           0       12.768550   -0.524282   -0.715319
     57          6           0       14.038366   -0.045689    0.086086
     58          6           0       15.314488   -0.198927   -0.492718
     59          6           0       15.760407   -1.688063   -0.897937
     60          6           0       16.485587    0.482719    0.470511
     61          6           0       17.754254    0.576467   -0.134529
     62          6           0       18.667917    1.494368    0.683501
     63          6           0       20.157801    1.552097    0.323318
     64          6           0       20.301235    2.331887   -1.119679
     65          6           0       21.132047    2.115718    1.387642
     66          1           0       -4.124538    3.533263    1.607972
     67          1           0      -10.175764    3.902744   -0.100098
     68          1           0      -10.342500   -2.338857   -1.036775
     69          1           0       -2.679701   -0.902219    2.037183
     70          1           0       -2.218592    1.648355    0.998476
     71          1           0       -1.803145    0.898841    3.607747
     72          1           0       -2.888544    2.315395    3.630230
     73          1           0       -3.672042    0.725619    3.732275
     74          1           0       -1.922625   -1.656399   -0.464944
     75          1           0       -2.096875    0.190782   -0.732805
     76          1           0       -0.260081    0.434940    0.902426
     77          1           0       -0.289088   -1.179878    1.255038
     78          1           0       -4.696200    6.374253    0.625540
     79          1           0       -6.107785    6.626145    1.940543
     80          1           0       -4.889410    5.673046    2.399026
     81          1           0       -9.539114    5.739421    0.460710
     82          1           0       -9.215229    7.916881    0.225953
     83          1           0       -7.246405    7.646331   -0.206685
     84          1           0      -12.282515    3.288565   -2.166137
     85          1           0      -13.187111    2.046062   -1.557461
     86          1           0      -12.382156    3.312404   -0.494421
     87          1           0      -12.056881   -1.621133   -1.198491
     88          1           0      -13.357494   -0.235061   -1.367570
     89          1           0      -13.330035   -1.287669   -3.596478
     90          1           0      -12.656140    0.121292   -3.738519
     91          1           0      -11.544445   -1.198909   -3.723701
     92          1           0       -9.028205   -4.960642   -1.781288
     93          1           0       -8.279248   -5.750228   -0.923997
     94          1           0       -9.491308   -4.931505   -0.040391
     95          1           0       -3.424669   -3.340637   -0.025845
     96          1           0       -1.619084   -4.492695    3.377110
     97          1           0       -2.830765   -5.554712    3.710385
     98          1           0       -1.639931   -6.012909    2.772796
     99          1           0        2.871363   -1.899647   -1.544155
    100          1           0        2.412146   -0.097570   -1.979756
    101          1           0        4.335799   -0.900035    0.410027
    102          1           0        3.802999    1.030238   -2.640767
    103          1           0        5.267164    2.080491   -2.077945
    104          1           0        5.853944    0.613344   -3.052998
    105          1           0        6.618865    1.394853   -0.130966
    106          1           0        6.286855   -0.070059    0.727702
    107          1           0        7.182298   -1.425657   -1.189763
    108          1           0        8.026123    0.190651   -1.805422
    109          1           0        9.204700    0.606755    0.592668
    110          1           0        8.747053   -1.020398    0.700471
    111          1           0       10.352597   -0.010840   -1.617704
    112          1           0        8.938393   -2.216147   -1.885190
    113          1           0       10.620159   -2.339467   -2.012552
    114          1           0        9.979242   -2.813283   -0.314881
    115          1           0       11.458951    0.573180    0.456435
    116          1           0       11.466170   -1.401216    0.752079
    117          1           0       12.808876   -1.605287   -0.993238
    118          1           0       12.707478   -0.058152   -1.550474
    119          1           0       13.848041    0.934947    0.422563
    120          1           0       13.923714   -0.679513    0.964907
    121          1           0       15.370336    0.535864   -1.325901
    122          1           0       15.441545   -2.388136    0.005264
    123          1           0       14.929461   -2.281913   -1.530087
    124          1           0       16.757947   -1.714779   -1.360739
    125          1           0       15.935797    1.377628    0.691378
    126          1           0       16.529122   -0.190604    1.324487
    127          1           0       18.242767   -0.408320   -0.334298
    128          1           0       17.609704    0.897323   -1.291399
    129          1           0       18.156304    2.472860    0.928603
    130          1           0       18.609263    0.815216    1.780655
    131          1           0       20.669375    0.590637    0.081488
    132          1           0       20.187126    3.460812   -1.123678
    133          1           0       21.238925    2.119542   -1.834688
    134          1           0       19.503838    1.904031   -1.811228
    135          1           0       21.141060    1.633486    2.191224
    136          1           0       22.295658    2.136171    0.922362
    137          1           0       20.713890    3.172028    1.758737
 ---------------------------------------------------------------------

 SCF Done:  E(RCAM-B3LYP) =  -2932.55550955     A.U. after   17 cycles

 Excitation energies and oscillator strengths:

 Excited State   1:      Singlet-A      2.0970 eV  591.25 nm  f=0.2523  <S**2>=0.000
     240 -> 243        0.22342
     241 -> 242        0.66337
 This state for optimization and/or second-order correction.
 Total Energy, E(TD-HF/TD-KS) =  -2932.47844701
 Copying the excited state density for this state as the 1-particle RhoCI density.

 The electronic state is 1-A.
 Alpha  occ. eigenvalues --  -46.83186 -19.26884 -19.25168 -19.20502 -19.20061
 Alpha  occ. eigenvalues --  -19.18937 -14.41239 -14.39455 -14.38975 -14.38865
 Alpha  occ. eigenvalues --  -10.38762 -10.37950 -10.33739 -10.33113 -10.29971
 Alpha  occ. eigenvalues --  -10.29932 -10.29918 -10.29400 -10.29376 -10.28985
 Alpha  occ. eigenvalues --  -10.28980 -10.28793 -10.28351 -10.28312 -10.28227
 Alpha  occ. eigenvalues --  -10.28170 -10.28021 -10.28012 -10.27893 -10.27866
 Alpha  occ. eigenvalues --  -10.27843 -10.27756 -10.27637 -10.27491 -10.27205
 Alpha  occ. eigenvalues --  -10.27176 -10.27094 -10.26950 -10.26940 -10.26746
 Alpha  occ. eigenvalues --  -10.26735 -10.26611 -10.26404 -10.26393 -10.26334
 Alpha  occ. eigenvalues --  -10.26322 -10.26222 -10.26220 -10.26181 -10.26119
 Alpha  occ. eigenvalues --  -10.26112 -10.25977 -10.25963 -10.25923 -10.25499
 Alpha  occ. eigenvalues --  -10.25419 -10.25262 -10.25160 -10.25160 -10.24994
 Alpha  occ. eigenvalues --  -10.24587 -10.24449 -10.24141 -10.24095 -10.23618
 Alpha  occ. eigenvalues --   -3.12428  -1.87121  -1.86681  -1.86610  -1.19281
 Alpha  occ. eigenvalues --   -1.19092  -1.10140  -1.09929  -1.08989  -1.04907
 Alpha  occ. eigenvalues --   -1.02975  -1.02627  -1.01427  -0.92866  -0.91889
 Alpha  occ. eigenvalues --   -0.91049  -0.90661  -0.89908  -0.89692  -0.88885
 Alpha  occ. eigenvalues --   -0.88356  -0.88086  -0.87607  -0.86645  -0.86460
 Alpha  occ. eigenvalues --   -0.85480  -0.84664  -0.84082  -0.83630  -0.82746
 Alpha  occ. eigenvalues --   -0.82100  -0.81492  -0.80980  -0.80595  -0.78404
 Alpha  occ. eigenvalues --   -0.77572  -0.76920  -0.76771  -0.76527  -0.75425
 Alpha  occ. eigenvalues --   -0.75170  -0.75086  -0.73581  -0.73104  -0.72719
 Alpha  occ. eigenvalues --   -0.72604  -0.70895  -0.70272  -0.69215  -0.68656
 Alpha  occ. eigenvalues --   -0.66875  -0.66177  -0.65766  -0.65448  -0.64780
 Alpha  occ. eigenvalues --   -0.64330  -0.63369  -0.63256  -0.62721  -0.62378
 Alpha  occ. eigenvalues --   -0.62006  -0.60806  -0.60036  -0.59946  -0.59061
 Alpha  occ. eigenvalues --   -0.58775  -0.58192  -0.57853  -0.57656  -0.57222
 Alpha  occ. eigenvalues --   -0.56508  -0.56206  -0.56119  -0.55601  -0.55021
 Alpha  occ. eigenvalues --   -0.54776  -0.54680  -0.53992  -0.53936  -0.53287
 Alpha  occ. eigenvalues --   -0.53222  -0.53071  -0.52821  -0.52537  -0.52191
 Alpha  occ. eigenvalues --   -0.51751  -0.51444  -0.51125  -0.50905  -0.50882
 Alpha  occ. eigenvalues --   -0.50764  -0.50466  -0.50186  -0.50077  -0.49605
 Alpha  occ. eigenvalues --   -0.49348  -0.49084  -0.48766  -0.48600  -0.48248
 Alpha  occ. eigenvalues --   -0.48014  -0.47786  -0.47721  -0.47423  -0.47390
 Alpha  occ. eigenvalues --   -0.47037  -0.46517  -0.46405  -0.46196  -0.45928
 Alpha  occ. eigenvalues --   -0.45656  -0.45572  -0.45374  -0.45110  -0.45002
 Alpha  occ. eigenvalues --   -0.44576  -0.44531  -0.44204  -0.43929  -0.43755
 Alpha  occ. eigenvalues --   -0.43632  -0.43423  -0.43354  -0.43104  -0.43033
 Alpha  occ. eigenvalues --   -0.42879  -0.42775  -0.42666  -0.42455  -0.42309
 Alpha  occ. eigenvalues --   -0.41999  -0.41697  -0.41482  -0.41226  -0.41127
 Alpha  occ. eigenvalues --   -0.41048  -0.40580  -0.40417  -0.40326  -0.40252
 Alpha  occ. eigenvalues --   -0.40025  -0.39860  -0.39810  -0.39413  -0.39226
 Alpha  occ. eigenvalues --   -0.39147  -0.38928  -0.38893  -0.38330  -0.38159
 Alpha  occ. eigenvalues --   -0.37881  -0.37428  -0.37078  -0.36830  -0.36574
 Alpha  occ. eigenvalues --   -0.36565  -0.36328  -0.35936  -0.35923  -0.35441
 Alpha  occ. eigenvalues --   -0.35332  -0.34394  -0.34377  -0.33666  -0.33318
 Alpha  occ. eigenvalues --   -0.33033  -0.32142  -0.31906  -0.31035  -0.29527
 Alpha  occ. eigenvalues --   -0.28952  -0.28545  -0.28233  -0.27340  -0.23240
 Alpha  occ. eigenvalues --   -0.21081
 Alpha virt. eigenvalues --   -0.06268  -0.02600   0.01386   0.05084   0.05972
 Alpha virt. eigenvalues --    0.06165   0.07151   0.07435   0.07749   0.08180
 Alpha virt. eigenvalues --    0.08748   0.10604   0.10825   0.11275   0.11342

 Mulliken charges:
               1
     1  Mg   0.815982
     2  C    0.090613
     3  C   -0.219762
     4  C   -0.188081
     5  C   -0.170397
     6  N   -0.644419
     7  C    0.270144
     8  C   -0.124023
     9  C   -0.165505
    10  C    0.433467
    11  C   -0.322543
    12  C   -0.196881
    13  C   -0.239965
    14  C    0.597740
    15  O   -0.483499
    16  O   -0.465517
    17  N   -0.734726
    18  C    0.364770
    19  C    0.005678
    20  C   -0.001819
    21  C    0.286953
    22  C   -0.382407
    23  C   -0.023189
    24  C   -0.237365
    25  N   -0.702333
    26  C    0.279870
    27  C    0.038738
    28  C    0.076550
    29  C    0.317084
    30  C   -0.364440
    31  C   -0.282518
    32  C   -0.338469
    33  N   -0.703392
    34  C    0.262134
    35  C    0.025835
    36  C    0.027162
    37  C    0.235888
    38  C   -0.402655
    39  C    0.360626
    40  O   -0.469032
    41  C   -0.304770
    42  C    0.565282
    43  O   -0.444381
    44  O   -0.441726
    45  C   -0.070230
    46  C    0.007098
    47  C   -0.134808
    48  C    0.087585
    49  C   -0.344289
    50  C   -0.218038
    51  C   -0.144732
    52  C   -0.164369
    53  C   -0.083259
    54  C   -0.273460
    55  C   -0.179495
    56  C   -0.178226
    57  C   -0.175519
    58  C   -0.057178
    59  C   -0.316627
    60  C   -0.167563
    61  C   -0.161182
    62  C   -0.153383
    63  C   -0.048723
    64  C   -0.323463
    65  C   -0.279562
    66  H    0.073482
    67  H    0.091988
    68  H    0.098000
    69  H    0.127541
    70  H    0.107959
    71  H    0.093767
    72  H    0.107480
    73  H    0.133139
    74  H    0.121018
    75  H    0.091709
    76  H    0.127540
    77  H    0.141045
    78  H    0.118536
    79  H    0.111997
    80  H    0.115285
    81  H    0.100234
    82  H    0.066475
    83  H    0.119113
    84  H    0.093172
    85  H    0.119284
    86  H    0.111254
    87  H    0.109668
    88  H    0.113249
    89  H    0.111039
    90  H    0.105990
    91  H    0.121587
    92  H    0.132178
    93  H    0.144042
    94  H    0.129608
    95  H    0.143428
    96  H    0.114943
    97  H    0.136173
    98  H    0.106812
    99  H    0.129951
   100  H    0.135975
   101  H    0.096315
   102  H    0.106358
   103  H    0.113040
   104  H    0.132376
   105  H    0.086397
   106  H    0.103348
   107  H    0.063474
   108  H    0.095555
   109  H    0.075028
   110  H    0.099054
   111  H    0.077499
   112  H    0.081020
   113  H    0.118159
   114  H    0.104645
   115  H    0.085473
   116  H    0.065592
   117  H    0.080788
   118  H    0.095958
   119  H    0.089851
   120  H    0.087748
   121  H    0.077984
   122  H    0.090839
   123  H    0.084333
   124  H    0.115934
   125  H    0.092535
   126  H    0.098130
   127  H    0.100602
   128  H    0.064868
   129  H    0.101348
   130  H    0.046076
   131  H    0.096200
   132  H    0.099721
   133  H    0.079426
   134  H    0.096107
   135  H    0.120752
   136  H    0.077234
   137  H    0.074292
 Sum of Mulliken charges =   0.00000

 Dipole moment (field-independent basis, Debye):
    X=              1.8306    Y=              5.1437    Z=              0.3953  Tot=              5.4741
 Quadrupole moment (field-independent basis, Debye-Ang):
   XX=           -347.2567   YY=           -396.4649   ZZ=           -396.7537
   XY=            -30.1041   XZ=             12.6844   YZ=             -0.9272

 Normal termination of Gaussian 09 at Thu Jun 27 00:40:25 2019.
