 Gaussian 09, Revision D.01,
 Gaussian 09:  ES64L-G09RevD.01 24-Apr-2013

 -------------------------------------
 # td=(NStates=1) CAM-B3LYP/6-31G(d,p)
 -------------------------------------

 --
 TD
 --
 Symbolic Z-matrix:
 Charge =  0 Multiplicity = 1

                         Standard orientation:
 ---------------------------------------------------------------------
 Center     Atomic      Atomic             Coordinates (Angstroms)
 Number     Number       Type             X           Y           Z
 ---------------------------------------------------------------------
      1         12           0       -7.209958    0.660325    0.101542
      2          6           0       -4.838556   -1.913035    0.466289
      3          6           0       -4.800218    2.793625    1.241224
      4          6           0       -9.400117    3.049337   -0.257849
      5          6           0       -9.533778   -1.803066   -1.008604
      6          7           0       -5.137345    0.428195    0.683348
      7          6           0       -4.292313   -0.662392    0.823760
      8          6           0       -2.964100   -0.480246    1.262845
      9          6           0       -3.032799    1.097105    1.714141
     10          6           0       -4.338405    1.449522    1.147099
     11          6           0       -2.939367    1.383638    3.259395
     12          6           0       -1.881314   -0.535455    0.123236
     13          6           0       -0.476604   -0.543934    0.546959
     14          6           0        0.489049   -0.675894   -0.643327
     15          8           0        0.188559   -0.827698   -1.811198
     16          8           0        1.774124   -0.631796   -0.217760
     17          7           0       -7.073286    2.646879    0.373903
     18          6           0       -6.074374    3.272803    0.835835
     19          6           0       -6.378989    4.685553    0.978174
     20          6           0       -7.599031    4.836973    0.434165
     21          6           0       -8.150921    3.453580    0.193702
     22          6           0       -5.378618    5.772361    1.406883
     23          6           0       -8.477866    5.924784    0.324647
     24          6           0       -8.080074    7.228180    0.111256
     25          7           0       -9.071013    0.622184   -0.495420
     26          6           0       -9.797234    1.836311   -0.579882
     27          6           0      -11.061000    1.509665   -0.992603
     28          6           0      -11.151798    0.118734   -1.178913
     29          6           0       -9.875238   -0.415809   -0.956888
     30          6           0      -12.246129    2.408172   -1.388888
     31          6           0      -12.312383   -0.661336   -1.723562
     32          6           0      -12.087029   -0.743115   -3.389716
     33          7           0       -7.257257   -1.333572   -0.109178
     34          6           0       -8.260821   -2.294559   -0.460434
     35          6           0       -7.794859   -3.521855   -0.547593
     36          6           0       -6.490396   -3.460110   -0.181610
     37          6           0       -6.225882   -2.176900    0.133973
     38          6           0       -8.632043   -4.791549   -1.010209
     39          6           0       -5.383377   -4.345117    0.151889
     40          8           0       -5.208823   -5.540249    0.097443
     41          6           0       -4.198634   -3.266559    0.522480
     42          6           0       -3.655168   -3.726773    1.955000
     43          8           0       -3.861858   -3.165954    2.953603
     44          8           0       -2.905486   -4.835330    1.724066
     45          6           0       -2.296807   -5.363713    2.927582
     46          6           0        2.751651   -0.844980   -1.215337
     47          6           0        4.111238   -0.582335   -0.651337
     48          6           0        5.042546    0.260691   -1.063224
     49          6           0        5.064212    1.219939   -2.178589
     50          6           0        6.253156    0.314618   -0.232938
     51          6           0        7.567025   -0.069046   -1.041378
     52          6           0        8.893409    0.020686   -0.226676
     53          6           0       10.228306   -0.435237   -0.891356
     54          6           0       10.131695   -1.849884   -1.246265
     55          6           0       11.322590   -0.104997   -0.000600
     56          6           0       12.800449   -0.439054   -0.637332
     57          6           0       13.914770   -0.088394    0.281802
     58          6           0       15.326680   -0.183143   -0.299047
     59          6           0       15.680817   -1.548682   -0.807314
     60          6           0       16.345558    0.301518    0.609937
     61          6           0       17.744050    0.536238   -0.119915
     62          6           0       18.805178    1.234869    0.766220
     63          6           0       20.291140    1.177237    0.244978
     64          6           0       20.304233    1.812201   -1.292216
     65          6           0       21.169784    1.936215    1.104694
     66          1           0       -4.168424    3.628461    1.559411
     67          1           0      -10.244286    3.780783   -0.430594
     68          1           0      -10.003229   -2.553968   -1.319453
     69          1           0       -2.676906   -1.120756    2.043679
     70          1           0       -2.257868    1.649494    1.368245
     71          1           0       -1.899125    1.037817    3.520612
     72          1           0       -3.181202    2.459479    3.432726
     73          1           0       -3.703257    0.696609    3.765131
     74          1           0       -1.964157   -1.590634   -0.129616
     75          1           0       -2.180882    0.187959   -0.704694
     76          1           0       -0.168561    0.372897    1.093715
     77          1           0       -0.308854   -1.400018    1.186288
     78          1           0       -4.645352    6.108421    0.547309
     79          1           0       -5.864707    6.533351    1.870385
     80          1           0       -4.734244    5.202321    2.293492
     81          1           0       -9.450471    5.654707    0.559851
     82          1           0       -9.065430    7.962870   -0.012730
     83          1           0       -7.141805    7.692120   -0.011343
     84          1           0      -11.869662    3.183411   -2.058230
     85          1           0      -13.198932    1.841166   -1.844042
     86          1           0      -12.467919    2.813973   -0.588917
     87          1           0      -12.495397   -1.687065   -1.341221
     88          1           0      -13.303404   -0.076524   -1.495431
     89          1           0      -13.049381   -1.377932   -3.669063
     90          1           0      -12.182105    0.247226   -3.903919
     91          1           0      -11.187884   -1.337372   -3.466041
     92          1           0       -8.994237   -4.563444   -2.090323
     93          1           0       -7.968645   -5.508717   -1.081085
     94          1           0       -9.445187   -5.045732   -0.378199
     95          1           0       -3.256729   -3.258204   -0.227570
     96          1           0       -1.869400   -4.581470    3.636905
     97          1           0       -3.159146   -5.970648    3.448030
     98          1           0       -1.368206   -5.904322    2.503690
     99          1           0        2.731977   -2.034652   -1.697199
    100          1           0        2.569425   -0.425095   -2.241679
    101          1           0        4.331700   -1.207929    0.141280
    102          1           0        4.077365    1.602103   -2.450796
    103          1           0        5.442517    2.171410   -1.817335
    104          1           0        5.585159    0.820519   -3.065184
    105          1           0        6.327876    1.418088    0.014818
    106          1           0        6.427262   -0.226539    0.703749
    107          1           0        7.463370   -0.964899   -1.426991
    108          1           0        7.540799    0.595529   -1.842490
    109          1           0        8.931111    0.911164    0.319201
    110          1           0        8.608296   -0.515429    0.548872
    111          1           0       10.345841    0.195899   -1.856842
    112          1           0        9.271583   -2.116304   -1.867562
    113          1           0       10.924301   -2.265856   -1.853648
    114          1           0       10.027302   -2.446820   -0.146262
    115          1           0       11.325193    0.959541    0.543140
    116          1           0       11.465547   -0.841856    0.859217
    117          1           0       12.881830   -1.446994   -1.001924
    118          1           0       12.914672    0.296724   -1.369903
    119          1           0       13.771398    1.152907    0.612592
    120          1           0       13.822763   -0.548026    1.341022
    121          1           0       15.105688    0.506035   -1.195489
    122          1           0       15.803021   -2.131687   -0.028148
    123          1           0       14.956572   -1.953592   -1.533377
    124          1           0       16.695155   -1.573947   -1.240923
    125          1           0       16.140049    1.481645    0.986072
    126          1           0       16.426321   -0.254818    1.604920
    127          1           0       18.257376   -0.457500   -0.532337
    128          1           0       17.497715    1.201036   -0.942928
    129          1           0       18.487879    2.211397    0.830147
    130          1           0       18.854049    0.834101    1.776272
    131          1           0       20.504940    0.162692    0.035104
    132          1           0       20.241825    3.005721   -1.113556
    133          1           0       21.465992    1.672589   -1.883152
    134          1           0       19.425268    1.496851   -1.838710
    135          1           0       21.423667    1.233512    2.011319
    136          1           0       22.251760    2.431392    0.629471
    137          1           0       20.762354    2.869026    1.488552
 ---------------------------------------------------------------------

 SCF Done:  E(RCAM-B3LYP) =  -2932.60992930     A.U. after   18 cycles

 Excitation energies and oscillator strengths:

 Excited State   1:      Singlet-A      2.0678 eV  599.60 nm  f=0.2014  <S**2>=0.000
     240 -> 242        0.14119
     240 -> 243        0.24816
     241 -> 242        0.63618
 This state for optimization and/or second-order correction.
 Total Energy, E(TD-HF/TD-KS) =  -2932.53393984
 Copying the excited state density for this state as the 1-particle RhoCI density.

 The electronic state is 1-A.
 Alpha  occ. eigenvalues --  -46.82813 -19.27188 -19.25915 -19.21578 -19.21478
 Alpha  occ. eigenvalues --  -19.20169 -14.42090 -14.39311 -14.38051 -14.38001
 Alpha  occ. eigenvalues --  -10.39782 -10.38771 -10.34683 -10.32935 -10.32698
 Alpha  occ. eigenvalues --  -10.31094 -10.29967 -10.29848 -10.29424 -10.28634
 Alpha  occ. eigenvalues --  -10.28187 -10.28047 -10.27986 -10.27906 -10.27771
 Alpha  occ. eigenvalues --  -10.27628 -10.27500 -10.27477 -10.27344 -10.27218
 Alpha  occ. eigenvalues --  -10.27210 -10.27200 -10.27048 -10.27036 -10.27027
 Alpha  occ. eigenvalues --  -10.27009 -10.26939 -10.26871 -10.26860 -10.26608
 Alpha  occ. eigenvalues --  -10.26595 -10.26474 -10.26443 -10.26403 -10.26379
 Alpha  occ. eigenvalues --  -10.26314 -10.26145 -10.26119 -10.25891 -10.25872
 Alpha  occ. eigenvalues --  -10.25800 -10.25778 -10.25772 -10.25542 -10.25458
 Alpha  occ. eigenvalues --  -10.25351 -10.25227 -10.25045 -10.24808 -10.24586
 Alpha  occ. eigenvalues --  -10.24458 -10.23515 -10.23472 -10.23372 -10.23175
 Alpha  occ. eigenvalues --   -3.12150  -1.86831  -1.86421  -1.86321  -1.19034
 Alpha  occ. eigenvalues --   -1.18672  -1.11166  -1.10715  -1.09727  -1.06525
 Alpha  occ. eigenvalues --   -1.04274  -1.03371  -1.01775  -0.92203  -0.91548
 Alpha  occ. eigenvalues --   -0.91426  -0.90823  -0.90357  -0.89969  -0.89414
 Alpha  occ. eigenvalues --   -0.88502  -0.87856  -0.87027  -0.86958  -0.86376
 Alpha  occ. eigenvalues --   -0.85149  -0.84228  -0.83304  -0.83016  -0.82111
 Alpha  occ. eigenvalues --   -0.81686  -0.80607  -0.80390  -0.79944  -0.78427
 Alpha  occ. eigenvalues --   -0.77417  -0.76957  -0.76518  -0.75967  -0.75763
 Alpha  occ. eigenvalues --   -0.75006  -0.74352  -0.73995  -0.73453  -0.73252
 Alpha  occ. eigenvalues --   -0.71482  -0.70527  -0.69625  -0.68999  -0.68676
 Alpha  occ. eigenvalues --   -0.67664  -0.67307  -0.65820  -0.64871  -0.64787
 Alpha  occ. eigenvalues --   -0.63797  -0.63571  -0.63127  -0.62826  -0.61789
 Alpha  occ. eigenvalues --   -0.61404  -0.61077  -0.60638  -0.60249  -0.59763
 Alpha  occ. eigenvalues --   -0.59010  -0.58488  -0.57352  -0.56955  -0.56608
 Alpha  occ. eigenvalues --   -0.55902  -0.55489  -0.55345  -0.55112  -0.54960
 Alpha  occ. eigenvalues --   -0.54670  -0.54335  -0.53914  -0.53681  -0.53271
 Alpha  occ. eigenvalues --   -0.52864  -0.52619  -0.52451  -0.52115  -0.51832
 Alpha  occ. eigenvalues --   -0.51571  -0.51277  -0.51157  -0.50774  -0.50755
 Alpha  occ. eigenvalues --   -0.50594  -0.50337  -0.50228  -0.49780  -0.49669
 Alpha  occ. eigenvalues --   -0.49381  -0.49309  -0.48962  -0.48574  -0.48491
 Alpha  occ. eigenvalues --   -0.48285  -0.48230  -0.47859  -0.47677  -0.47641
 Alpha  occ. eigenvalues --   -0.47545  -0.47018  -0.46621  -0.46477  -0.46408
 Alpha  occ. eigenvalues --   -0.46091  -0.45981  -0.45788  -0.45390  -0.45262
 Alpha  occ. eigenvalues --   -0.45008  -0.44636  -0.44496  -0.44464  -0.44259
 Alpha  occ. eigenvalues --   -0.44056  -0.43794  -0.43308  -0.43207  -0.42871
 Alpha  occ. eigenvalues --   -0.42618  -0.42389  -0.42266  -0.42025  -0.41840
 Alpha  occ. eigenvalues --   -0.41596  -0.41527  -0.41423  -0.41301  -0.41171
 Alpha  occ. eigenvalues --   -0.41110  -0.40966  -0.40843  -0.40668  -0.40384
 Alpha  occ. eigenvalues --   -0.40002  -0.39925  -0.39888  -0.39819  -0.39586
 Alpha  occ. eigenvalues --   -0.39470  -0.39291  -0.39258  -0.38437  -0.37869
 Alpha  occ. eigenvalues --   -0.37681  -0.37431  -0.37295  -0.36681  -0.36533
 Alpha  occ. eigenvalues --   -0.36385  -0.36149  -0.35937  -0.35814  -0.35456
 Alpha  occ. eigenvalues --   -0.35294  -0.35068  -0.34534  -0.34093  -0.34014
 Alpha  occ. eigenvalues --   -0.33320  -0.33257  -0.31676  -0.30733  -0.29679
 Alpha  occ. eigenvalues --   -0.29176  -0.28930  -0.27846  -0.26722  -0.22457
 Alpha  occ. eigenvalues --   -0.21758
 Alpha virt. eigenvalues --   -0.06823  -0.02781   0.02080   0.03928   0.05736
 Alpha virt. eigenvalues --    0.06245   0.06645   0.06788   0.06894   0.07748
 Alpha virt. eigenvalues --    0.08564   0.10487   0.11088   0.11092   0.11443

 Mulliken charges:
               1
     1  Mg   0.804952
     2  C    0.025798
     3  C   -0.220690
     4  C   -0.188860
     5  C   -0.090627
     6  N   -0.614402
     7  C    0.346133
     8  C   -0.182476
     9  C   -0.153322
    10  C    0.359907
    11  C   -0.299214
    12  C   -0.156674
    13  C   -0.271390
    14  C    0.613764
    15  O   -0.465189
    16  O   -0.458724
    17  N   -0.719252
    18  C    0.379311
    19  C   -0.016169
    20  C    0.027661
    21  C    0.269670
    22  C   -0.346730
    23  C   -0.089066
    24  C   -0.242879
    25  N   -0.754137
    26  C    0.375673
    27  C   -0.031926
    28  C    0.032636
    29  C    0.296642
    30  C   -0.346587
    31  C   -0.262656
    32  C   -0.305535
    33  N   -0.691993
    34  C    0.207110
    35  C    0.004653
    36  C   -0.007256
    37  C    0.303764
    38  C   -0.344279
    39  C    0.381313
    40  O   -0.453879
    41  C   -0.350065
    42  C    0.593970
    43  O   -0.433105
    44  O   -0.440357
    45  C   -0.093688
    46  C    0.005852
    47  C   -0.134220
    48  C    0.147611
    49  C   -0.375767
    50  C   -0.241131
    51  C   -0.195475
    52  C   -0.182045
    53  C   -0.031542
    54  C   -0.295803
    55  C   -0.177915
    56  C   -0.187071
    57  C   -0.168032
    58  C   -0.032215
    59  C   -0.309920
    60  C   -0.169652
    61  C   -0.187238
    62  C   -0.174382
    63  C   -0.047157
    64  C   -0.300273
    65  C   -0.289993
    66  H    0.072876
    67  H    0.092922
    68  H    0.055329
    69  H    0.123252
    70  H    0.114566
    71  H    0.105198
    72  H    0.113772
    73  H    0.122105
    74  H    0.112838
    75  H    0.123097
    76  H    0.126560
    77  H    0.142452
    78  H    0.121450
    79  H    0.133153
    80  H    0.087260
    81  H    0.107923
    82  H    0.074788
    83  H    0.116896
    84  H    0.117012
    85  H    0.101217
    86  H    0.135441
    87  H    0.109096
    88  H    0.086842
    89  H    0.086789
    90  H    0.121858
    91  H    0.124761
    92  H    0.104619
    93  H    0.148713
    94  H    0.131824
    95  H    0.136290
    96  H    0.125198
    97  H    0.132413
    98  H    0.123283
    99  H    0.069654
   100  H    0.133391
   101  H    0.092037
   102  H    0.117918
   103  H    0.118618
   104  H    0.135005
   105  H    0.088316
   106  H    0.097376
   107  H    0.105822
   108  H    0.094301
   109  H    0.085795
   110  H    0.097860
   111  H    0.076692
   112  H    0.106425
   113  H    0.105744
   114  H    0.070660
   115  H    0.083589
   116  H    0.086832
   117  H    0.106417
   118  H    0.103763
   119  H    0.039265
   120  H    0.068405
   121  H    0.075785
   122  H    0.114057
   123  H    0.098100
   124  H    0.101436
   125  H    0.057809
   126  H    0.092475
   127  H    0.074904
   128  H    0.107924
   129  H    0.101016
   130  H    0.090964
   131  H    0.102185
   132  H    0.074880
   133  H    0.064160
   134  H    0.112361
   135  H    0.088933
   136  H    0.067824
   137  H    0.114044
 Sum of Mulliken charges =   0.00000

 Dipole moment (field-independent basis, Debye):
    X=              1.3503    Y=              4.3477    Z=              1.0054  Tot=              4.6623
 Quadrupole moment (field-independent basis, Debye-Ang):
   XX=           -367.4972   YY=           -393.3648   ZZ=           -398.3572
   XY=            -26.5433   XZ=             10.4175   YZ=             -2.1059

 Normal termination of Gaussian 09 at Mon Jul  1 04:11:49 2019.
