 Gaussian 09, Revision D.01,
 Gaussian 09:  ES64L-G09RevD.01 24-Apr-2013

 -------------------------------------
 # td=(NStates=1) CAM-B3LYP/6-31G(d,p)
 -------------------------------------

 --
 TD
 --
 Symbolic Z-matrix:
 Charge =  0 Multiplicity = 1

                         Standard orientation:
 ---------------------------------------------------------------------
 Center     Atomic      Atomic             Coordinates (Angstroms)
 Number     Number       Type             X           Y           Z
 ---------------------------------------------------------------------
      1         12           0       -7.090268    0.570779    0.085501
      2          6           0       -4.956111   -2.026768    0.535103
      3          6           0       -4.735906    2.798674    1.267131
      4          6           0       -9.267415    3.170019   -0.405187
      5          6           0       -9.515566   -1.699715   -1.085047
      6          7           0       -5.136001    0.444528    0.781614
      7          6           0       -4.350419   -0.770847    0.898356
      8          6           0       -2.949712   -0.509463    1.229442
      9          6           0       -2.952854    1.081806    1.695408
     10          6           0       -4.426631    1.511107    1.232632
     11          6           0       -2.833995    1.262965    3.179226
     12          6           0       -1.879878   -0.741074    0.151289
     13          6           0       -0.434324   -0.711186    0.641187
     14          6           0        0.570087   -0.804617   -0.511922
     15          8           0        0.230892   -1.036746   -1.663103
     16          8           0        1.716320   -0.629283   -0.083612
     17          7           0       -7.122978    2.644978    0.423312
     18          6           0       -6.054597    3.375282    0.933505
     19          6           0       -6.375202    4.762497    1.030798
     20          6           0       -7.653139    4.830135    0.569535
     21          6           0       -7.998297    3.527748   -0.010413
     22          6           0       -5.481271    5.924043    1.423323
     23          6           0       -8.495946    6.098113    0.538353
     24          6           0       -7.991724    7.290181    0.247286
     25          7           0       -9.072608    0.711474   -0.491826
     26          6           0       -9.777406    1.798511   -0.734609
     27          6           0      -11.074414    1.541358   -1.154847
     28          6           0      -11.098986    0.167526   -1.395817
     29          6           0       -9.870821   -0.360967   -1.030355
     30          6           0      -12.146242    2.663682   -1.377848
     31          6           0      -12.360878   -0.606675   -1.922696
     32          6           0      -12.242586   -0.714200   -3.440439
     33          7           0       -7.177615   -1.361656   -0.206478
     34          6           0       -8.288349   -2.130111   -0.610751
     35          6           0       -7.904494   -3.557121   -0.588942
     36          6           0       -6.586993   -3.498384   -0.173958
     37          6           0       -6.214602   -2.212984   -0.016635
     38          6           0       -8.666531   -4.774888   -0.913980
     39          6           0       -5.441457   -4.316099    0.206056
     40          8           0       -5.335933   -5.593364    0.232800
     41          6           0       -4.283287   -3.368916    0.583853
     42          6           0       -3.689096   -3.832258    1.859435
     43          8           0       -3.837488   -3.244453    2.906078
     44          8           0       -3.004827   -4.986116    1.726548
     45          6           0       -2.412968   -5.330044    2.980728
     46          6           0        2.877138   -0.832061   -1.084087
     47          6           0        4.223615   -0.651671   -0.508478
     48          6           0        5.029203    0.327193   -0.873837
     49          6           0        4.959739    1.227710   -2.070678
     50          6           0        6.455445    0.431804   -0.113883
     51          6           0        7.611483   -0.030319   -0.887776
     52          6           0        8.972998   -0.025614   -0.181797
     53          6           0       10.160313   -0.429085   -1.001366
     54          6           0       10.012260   -1.882897   -1.383117
     55          6           0       11.498542   -0.229800   -0.098147
     56          6           0       12.784956   -0.377958   -0.760984
     57          6           0       13.954938   -0.192851    0.106021
     58          6           0       15.335116   -0.324899   -0.574695
     59          6           0       15.680235   -1.738545   -0.896897
     60          6           0       16.386615    0.366299    0.336871
     61          6           0       17.795302    0.567026   -0.391847
     62          6           0       18.760929    1.204027    0.605286
     63          6           0       20.169675    1.432935    0.228034
     64          6           0       20.267217    2.359992   -0.914021
     65          6           0       21.037726    1.813126    1.395360
     66          1           0       -4.168613    3.392943    1.580484
     67          1           0      -10.131974    4.028936   -0.509870
     68          1           0      -10.235668   -2.382826   -1.426837
     69          1           0       -2.621235   -1.253275    2.111362
     70          1           0       -2.090251    1.625003    1.341069
     71          1           0       -1.791841    0.939746    3.579746
     72          1           0       -3.057040    2.327352    3.533592
     73          1           0       -3.785683    0.674080    3.799438
     74          1           0       -1.789512   -1.734760   -0.357970
     75          1           0       -2.243606   -0.049898   -0.598012
     76          1           0       -0.120316    0.298952    1.124585
     77          1           0       -0.137568   -1.607916    1.284991
     78          1           0       -5.195179    6.325877    0.510449
     79          1           0       -6.342850    6.586112    1.704226
     80          1           0       -4.525492    5.552227    2.062541
     81          1           0       -9.515945    5.850847    0.512491
     82          1           0       -8.805992    7.979426    0.151373
     83          1           0       -6.789981    7.275287    0.014143
     84          1           0      -11.851617    3.066789   -2.395060
     85          1           0      -13.318868    2.040359   -1.352283
     86          1           0      -12.041953    3.241788   -0.389730
     87          1           0      -12.194035   -1.488079   -1.475707
     88          1           0      -13.274782   -0.214636   -1.582049
     89          1           0      -13.038049   -1.289941   -3.997082
     90          1           0      -12.467286    0.298801   -3.612304
     91          1           0      -11.212820   -1.068023   -3.681057
     92          1           0       -8.814889   -4.628502   -1.977608
     93          1           0       -8.103619   -5.668633   -0.741225
     94          1           0       -9.587553   -4.595828   -0.456374
     95          1           0       -3.368060   -3.463750   -0.124665
     96          1           0       -1.717492   -4.674157    3.335121
     97          1           0       -3.066974   -5.559823    3.670489
     98          1           0       -1.885330   -6.091934    2.812535
     99          1           0        2.688311   -1.880042   -1.571959
    100          1           0        2.468896   -0.187577   -1.973241
    101          1           0        4.455257   -1.083793    0.435985
    102          1           0        4.092143    1.200874   -2.599384
    103          1           0        5.356521    2.199525   -1.709087
    104          1           0        5.727664    0.962067   -2.690964
    105          1           0        6.870773    1.533056    0.243161
    106          1           0        6.538851   -0.061997    0.856047
    107          1           0        7.342917   -1.143795   -1.288978
    108          1           0        7.558426    0.499896   -1.681781
    109          1           0        9.117309    1.030535    0.182996
    110          1           0        8.935538   -0.461638    0.810910
    111          1           0       10.177240    0.064726   -1.843263
    112          1           0        9.019574   -1.946596   -1.763447
    113          1           0       10.899761   -2.315336   -1.928749
    114          1           0        9.783000   -2.336039   -0.467159
    115          1           0       11.635805    0.729797    0.240667
    116          1           0       11.439364   -0.915204    0.682344
    117          1           0       12.903600   -1.558569   -1.207084
    118          1           0       12.755945    0.190140   -1.505758
    119          1           0       14.066166    0.968254    0.349026
    120          1           0       14.020430   -0.839153    1.002739
    121          1           0       15.529356    0.283908   -1.656200
    122          1           0       15.490967   -2.338887   -0.048530
    123          1           0       14.984912   -2.059685   -1.749816
    124          1           0       16.822849   -1.852712   -1.097058
    125          1           0       16.033860    1.323890    0.610674
    126          1           0       16.584600   -0.308848    1.270481
    127          1           0       18.049839   -0.442636   -0.765963
    128          1           0       17.600768    1.033517   -1.275788
    129          1           0       18.298044    2.005369    1.106468
    130          1           0       18.879507    0.507559    1.498975
    131          1           0       20.412115    0.398742   -0.303030
    132          1           0       19.933784    3.460660   -0.663893
    133          1           0       21.327506    2.387183   -1.232413
    134          1           0       19.682474    2.193314   -1.902071
    135          1           0       20.817056    1.251070    2.336205
    136          1           0       22.101741    1.842283    1.095280
    137          1           0       20.596502    2.818223    1.675794
 ---------------------------------------------------------------------

 SCF Done:  E(RCAM-B3LYP) =  -2932.55576882     A.U. after   17 cycles

 Excitation energies and oscillator strengths:

 Excited State   1:      Singlet-A      2.1557 eV  575.14 nm  f=0.1805  <S**2>=0.000
     240 -> 242       -0.19052
     240 -> 243       -0.26171
     241 -> 242        0.60395
     241 -> 243       -0.14602
 This state for optimization and/or second-order correction.
 Total Energy, E(TD-HF/TD-KS) =  -2932.47654748
 Copying the excited state density for this state as the 1-particle RhoCI density.

 The electronic state is 1-A.
 Alpha  occ. eigenvalues --  -46.83317 -19.27198 -19.25864 -19.19977 -19.19071
 Alpha  occ. eigenvalues --  -19.18791 -14.41079 -14.39065 -14.38854 -14.38515
 Alpha  occ. eigenvalues --  -10.38156 -10.37714 -10.34625 -10.34501 -10.31390
 Alpha  occ. eigenvalues --  -10.30320 -10.30248 -10.29821 -10.29260 -10.28935
 Alpha  occ. eigenvalues --  -10.28902 -10.28792 -10.28281 -10.28182 -10.28025
 Alpha  occ. eigenvalues --  -10.27978 -10.27957 -10.27926 -10.27873 -10.27684
 Alpha  occ. eigenvalues --  -10.27660 -10.27534 -10.27528 -10.27513 -10.27334
 Alpha  occ. eigenvalues --  -10.27205 -10.26972 -10.26880 -10.26866 -10.26811
 Alpha  occ. eigenvalues --  -10.26377 -10.26238 -10.26181 -10.26106 -10.25866
 Alpha  occ. eigenvalues --  -10.25851 -10.25848 -10.25548 -10.25472 -10.25264
 Alpha  occ. eigenvalues --  -10.25252 -10.25228 -10.25152 -10.25072 -10.24832
 Alpha  occ. eigenvalues --  -10.24826 -10.24785 -10.24743 -10.24463 -10.24324
 Alpha  occ. eigenvalues --  -10.24306 -10.23799 -10.23652 -10.23492 -10.23119
 Alpha  occ. eigenvalues --   -3.12471  -1.87177  -1.86691  -1.86674  -1.20798
 Alpha  occ. eigenvalues --   -1.18153  -1.08776  -1.07870  -1.06789  -1.04832
 Alpha  occ. eigenvalues --   -1.04485  -1.02621  -1.01061  -0.92947  -0.92806
 Alpha  occ. eigenvalues --   -0.91864  -0.90794  -0.90016  -0.89807  -0.89133
 Alpha  occ. eigenvalues --   -0.88966  -0.88092  -0.87858  -0.87228  -0.86968
 Alpha  occ. eigenvalues --   -0.85448  -0.85131  -0.83997  -0.83818  -0.82753
 Alpha  occ. eigenvalues --   -0.82632  -0.82015  -0.81789  -0.80820  -0.78994
 Alpha  occ. eigenvalues --   -0.78475  -0.77728  -0.77312  -0.76302  -0.75791
 Alpha  occ. eigenvalues --   -0.75662  -0.75096  -0.74545  -0.73724  -0.72236
 Alpha  occ. eigenvalues --   -0.70875  -0.69992  -0.69692  -0.69054  -0.67930
 Alpha  occ. eigenvalues --   -0.67412  -0.66593  -0.65969  -0.65515  -0.65105
 Alpha  occ. eigenvalues --   -0.64460  -0.63652  -0.62783  -0.62704  -0.62172
 Alpha  occ. eigenvalues --   -0.61351  -0.60753  -0.60195  -0.59893  -0.59232
 Alpha  occ. eigenvalues --   -0.58910  -0.58044  -0.57567  -0.57456  -0.56679
 Alpha  occ. eigenvalues --   -0.56277  -0.55823  -0.55538  -0.55411  -0.55125
 Alpha  occ. eigenvalues --   -0.54802  -0.54162  -0.53995  -0.53876  -0.53369
 Alpha  occ. eigenvalues --   -0.53157  -0.52931  -0.52595  -0.52442  -0.52204
 Alpha  occ. eigenvalues --   -0.51904  -0.51713  -0.51375  -0.51135  -0.50977
 Alpha  occ. eigenvalues --   -0.50668  -0.50516  -0.50493  -0.50266  -0.50055
 Alpha  occ. eigenvalues --   -0.49751  -0.49474  -0.49244  -0.48875  -0.48641
 Alpha  occ. eigenvalues --   -0.48519  -0.48458  -0.47890  -0.47804  -0.47574
 Alpha  occ. eigenvalues --   -0.47470  -0.47252  -0.46813  -0.46712  -0.46295
 Alpha  occ. eigenvalues --   -0.46002  -0.45767  -0.45646  -0.45459  -0.45347
 Alpha  occ. eigenvalues --   -0.44992  -0.44834  -0.44575  -0.44447  -0.44181
 Alpha  occ. eigenvalues --   -0.43805  -0.43753  -0.43393  -0.43246  -0.43115
 Alpha  occ. eigenvalues --   -0.43014  -0.42739  -0.42600  -0.42436  -0.42129
 Alpha  occ. eigenvalues --   -0.41914  -0.41908  -0.41512  -0.41310  -0.40959
 Alpha  occ. eigenvalues --   -0.40879  -0.40805  -0.40452  -0.40412  -0.40229
 Alpha  occ. eigenvalues --   -0.39925  -0.39866  -0.39759  -0.39413  -0.39362
 Alpha  occ. eigenvalues --   -0.39014  -0.38888  -0.38183  -0.38162  -0.37893
 Alpha  occ. eigenvalues --   -0.37514  -0.37102  -0.36873  -0.36835  -0.36638
 Alpha  occ. eigenvalues --   -0.36125  -0.36016  -0.35763  -0.35653  -0.35382
 Alpha  occ. eigenvalues --   -0.35321  -0.34906  -0.34580  -0.34000  -0.33201
 Alpha  occ. eigenvalues --   -0.32805  -0.32729  -0.32237  -0.31293  -0.30405
 Alpha  occ. eigenvalues --   -0.29429  -0.29091  -0.28072  -0.27408  -0.22986
 Alpha  occ. eigenvalues --   -0.21342
 Alpha virt. eigenvalues --   -0.05822  -0.03378   0.01767   0.04201   0.04592
 Alpha virt. eigenvalues --    0.05864   0.06425   0.07599   0.08041   0.08123
 Alpha virt. eigenvalues --    0.09172   0.09983   0.11072   0.11233   0.11492

 Mulliken charges:
               1
     1  Mg   0.813423
     2  C    0.054585
     3  C   -0.078817
     4  C   -0.178770
     5  C   -0.141233
     6  N   -0.674657
     7  C    0.315676
     8  C   -0.177059
     9  C   -0.137080
    10  C    0.369156
    11  C   -0.292528
    12  C   -0.148770
    13  C   -0.273349
    14  C    0.597153
    15  O   -0.519244
    16  O   -0.430577
    17  N   -0.643557
    18  C    0.269240
    19  C    0.009353
    20  C   -0.031601
    21  C    0.287217
    22  C   -0.378633
    23  C   -0.058577
    24  C   -0.246596
    25  N   -0.673876
    26  C    0.309113
    27  C   -0.013414
    28  C   -0.035560
    29  C    0.261446
    30  C   -0.336389
    31  C   -0.217365
    32  C   -0.300797
    33  N   -0.748548
    34  C    0.241763
    35  C   -0.013013
    36  C    0.043642
    37  C    0.320346
    38  C   -0.360243
    39  C    0.355036
    40  O   -0.509894
    41  C   -0.321123
    42  C    0.632320
    43  O   -0.478964
    44  O   -0.451998
    45  C   -0.060183
    46  C   -0.025153
    47  C   -0.129199
    48  C    0.126440
    49  C   -0.361154
    50  C   -0.243919
    51  C   -0.144148
    52  C   -0.193775
    53  C   -0.058968
    54  C   -0.308406
    55  C   -0.166187
    56  C   -0.137085
    57  C   -0.165287
    58  C   -0.058365
    59  C   -0.294317
    60  C   -0.175384
    61  C   -0.186927
    62  C   -0.159047
    63  C   -0.043025
    64  C   -0.293922
    65  C   -0.306664
    66  H   -0.014144
    67  H    0.080905
    68  H    0.100936
    69  H    0.118323
    70  H    0.108423
    71  H    0.100741
    72  H    0.101396
    73  H    0.090319
    74  H    0.114568
    75  H    0.119618
    76  H    0.110757
    77  H    0.128954
    78  H    0.146248
    79  H    0.139941
    80  H    0.112135
    81  H    0.093272
    82  H    0.115015
    83  H    0.113297
    84  H    0.140297
    85  H    0.072351
    86  H    0.126336
    87  H    0.101702
    88  H    0.106241
    89  H    0.093587
    90  H    0.118554
    91  H    0.108803
    92  H    0.133301
    93  H    0.160979
    94  H    0.131582
    95  H    0.161105
    96  H    0.115240
    97  H    0.134854
    98  H    0.113002
    99  H    0.133247
   100  H    0.142315
   101  H    0.109302
   102  H    0.123231
   103  H    0.125016
   104  H    0.141739
   105  H    0.066792
   106  H    0.101240
   107  H    0.068225
   108  H    0.107272
   109  H    0.080564
   110  H    0.096409
   111  H    0.087833
   112  H    0.099492
   113  H    0.105329
   114  H    0.101501
   115  H    0.091699
   116  H    0.092122
   117  H    0.036200
   118  H    0.101365
   119  H    0.068780
   120  H    0.096949
   121  H    0.043133
   122  H    0.101444
   123  H    0.101190
   124  H    0.088581
   125  H    0.096740
   126  H    0.073266
   127  H    0.086481
   128  H    0.103328
   129  H    0.089719
   130  H    0.075743
   131  H    0.066674
   132  H    0.074660
   133  H    0.093927
   134  H    0.096217
   135  H    0.104186
   136  H    0.108771
   137  H    0.098117
 Sum of Mulliken charges =   0.00000

 Dipole moment (field-independent basis, Debye):
    X=              3.6924    Y=              5.3269    Z=             -0.3436  Tot=              6.4906
 Quadrupole moment (field-independent basis, Debye-Ang):
   XX=           -347.3447   YY=           -397.6166   ZZ=           -399.6947
   XY=            -21.3056   XZ=             16.4510   YZ=             -4.5009

 Normal termination of Gaussian 09 at Fri Jun 28 20:10:51 2019.
