 Gaussian 09, Revision D.01,
 Gaussian 09:  ES64L-G09RevD.01 24-Apr-2013

 -------------------------------------
 # td=(NStates=1) CAM-B3LYP/6-31G(d,p)
 -------------------------------------

 --
 TD
 --
 Symbolic Z-matrix:
 Charge =  0 Multiplicity = 1

                         Standard orientation:
 ---------------------------------------------------------------------
 Center     Atomic      Atomic             Coordinates (Angstroms)
 Number     Number       Type             X           Y           Z
 ---------------------------------------------------------------------
      1         12           0       -7.063770    0.716314    0.052607
      2          6           0       -4.808246   -1.947033    0.493970
      3          6           0       -4.873103    2.775268    1.237180
      4          6           0       -9.330882    3.196099   -0.427938
      5          6           0       -9.528091   -1.751984   -0.839256
      6          7           0       -5.083338    0.505513    0.846646
      7          6           0       -4.285814   -0.751380    0.852554
      8          6           0       -2.913865   -0.403468    1.348055
      9          6           0       -3.063848    1.044698    1.805653
     10          6           0       -4.330378    1.537802    1.276461
     11          6           0       -2.919936    1.235256    3.348088
     12          6           0       -1.928778   -0.617343    0.093498
     13          6           0       -0.444316   -0.429444    0.585837
     14          6           0        0.498431   -0.689725   -0.632555
     15          8           0        0.245409   -1.043850   -1.732426
     16          8           0        1.749439   -0.390885   -0.236535
     17          7           0       -7.104269    2.662868    0.205925
     18          6           0       -6.140219    3.296328    0.735445
     19          6           0       -6.443478    4.738266    0.925112
     20          6           0       -7.714470    4.904813    0.387904
     21          6           0       -8.134237    3.528598    0.057732
     22          6           0       -5.498768    5.731715    1.505788
     23          6           0       -8.590378    6.051439    0.256846
     24          6           0       -8.174810    7.312167    0.082520
     25          7           0       -9.163054    0.685491   -0.529017
     26          6           0       -9.843024    1.783544   -0.683886
     27          6           0      -11.215526    1.536526   -1.132106
     28          6           0      -11.140596    0.135663   -1.348855
     29          6           0       -9.904423   -0.341598   -0.931839
     30          6           0      -12.408058    2.389404   -1.386008
     31          6           0      -12.391484   -0.751215   -1.608626
     32          6           0      -12.451484   -1.406242   -3.155025
     33          7           0       -7.248715   -1.337035   -0.115447
     34          6           0       -8.220350   -2.253397   -0.562336
     35          6           0       -7.844248   -3.612044   -0.553296
     36          6           0       -6.534885   -3.546108   -0.130858
     37          6           0       -6.194343   -2.132440    0.146531
     38          6           0       -8.551239   -4.821577   -1.028635
     39          6           0       -5.429624   -4.385907    0.161637
     40          8           0       -5.227648   -5.540216    0.307894
     41          6           0       -4.234421   -3.314040    0.601988
     42          6           0       -3.609055   -3.697727    1.930773
     43          8           0       -3.790243   -3.200101    3.013333
     44          8           0       -2.777633   -4.749894    1.695880
     45          6           0       -2.161298   -5.209128    2.912440
     46          6           0        2.851949   -0.591703   -1.191615
     47          6           0        4.107863   -0.374506   -0.440950
     48          6           0        5.101477    0.396836   -1.077724
     49          6           0        4.984445    1.113888   -2.357727
     50          6           0        6.429985    0.563266   -0.350621
     51          6           0        7.554004   -0.211932   -1.054381
     52          6           0        8.896381   -0.017935   -0.215717
     53          6           0       10.163139   -0.593670   -0.962248
     54          6           0       10.165565   -2.083923   -1.101289
     55          6           0       11.345079   -0.225396   -0.108791
     56          6           0       12.755330   -0.440571   -0.755919
     57          6           0       14.004042   -0.193906    0.204190
     58          6           0       15.318860   -0.215397   -0.531800
     59          6           0       15.500687   -1.722288   -0.875094
     60          6           0       16.467372    0.299602    0.454494
     61          6           0       17.991472    0.408494   -0.091593
     62          6           0       18.838994    1.312037    0.754920
     63          6           0       20.253705    1.373897    0.242696
     64          6           0       20.474164    2.091764   -1.076602
     65          6           0       21.225817    2.076328    1.311603
     66          1           0       -4.121890    3.593710    1.773734
     67          1           0       -9.899092    4.046611   -0.575241
     68          1           0      -10.400385   -2.425605   -1.026050
     69          1           0       -2.392639   -1.160410    2.155580
     70          1           0       -1.999391    1.516834    1.466231
     71          1           0       -1.917493    0.899864    3.719596
     72          1           0       -3.079992    2.155755    3.708631
     73          1           0       -3.692663    0.588622    3.733897
     74          1           0       -2.037440   -1.589567   -0.384309
     75          1           0       -2.405893    0.154456   -0.561469
     76          1           0       -0.252899    0.652980    1.050634
     77          1           0       -0.167250   -1.192280    1.308898
     78          1           0       -4.857375    6.152757    0.638201
     79          1           0       -6.102731    6.594543    1.796961
     80          1           0       -4.859209    5.367160    2.272425
     81          1           0       -9.616809    5.983738    0.562333
     82          1           0       -8.788966    8.115843    0.085109
     83          1           0       -7.154473    7.554706   -0.362050
     84          1           0      -12.287694    3.081452   -2.112144
     85          1           0      -13.306867    1.842877   -1.619668
     86          1           0      -12.384638    3.105536   -0.705454
     87          1           0      -12.802830   -1.622795   -0.828960
     88          1           0      -13.178971    0.059505   -1.733974
     89          1           0      -13.632993   -1.632612   -3.543355
     90          1           0      -12.337947   -0.501883   -3.819813
     91          1           0      -11.553593   -2.153490   -3.416892
     92          1           0       -8.979894   -4.589839   -2.086745
     93          1           0       -7.997035   -5.753839   -1.163640
     94          1           0       -9.454360   -4.766057   -0.482940
     95          1           0       -3.220495   -3.499572    0.013826
     96          1           0       -1.506997   -4.146474    3.324837
     97          1           0       -3.008146   -5.208508    3.588799
     98          1           0       -1.652177   -6.227632    2.581491
     99          1           0        2.843910   -1.704540   -1.617667
    100          1           0        2.691879   -0.024992   -1.974130
    101          1           0        4.330966   -0.879735    0.492560
    102          1           0        4.045298    1.096800   -2.777210
    103          1           0        5.351291    2.112525   -2.567831
    104          1           0        5.581553    0.531144   -3.215958
    105          1           0        6.724500    1.620144   -0.298135
    106          1           0        6.189461    0.178317    0.572931
    107          1           0        7.402973   -1.294444   -1.175332
    108          1           0        7.864330   -0.003792   -2.018850
    109          1           0        9.106832    0.998839    0.032136
    110          1           0        8.829730   -0.462417    0.743119
    111          1           0       10.243226   -0.165780   -1.918192
    112          1           0        9.126279   -2.331774   -1.671849
    113          1           0       10.832881   -2.460738   -1.602123
    114          1           0       10.169883   -2.600237   -0.034709
    115          1           0       11.119804    0.835820    0.345936
    116          1           0       11.137747   -0.880252    0.653698
    117          1           0       12.967919   -1.408646   -1.017884
    118          1           0       13.093982    0.182983   -1.629747
    119          1           0       13.658194    0.960061    0.645951
    120          1           0       14.058116   -1.014275    1.035949
    121          1           0       15.415031    0.387177   -1.411790
    122          1           0       15.610507   -2.538795   -0.067803
    123          1           0       14.887962   -2.155079   -1.586871
    124          1           0       16.605570   -1.794979   -1.341523
    125          1           0       16.156546    1.290751    0.547723
    126          1           0       16.517453   -0.039378    1.455258
    127          1           0       18.302100   -0.757631   -0.070367
    128          1           0       17.994890    0.671483   -1.309810
    129          1           0       18.421182    2.359603    0.694731
    130          1           0       18.840716    0.952714    1.800968
    131          1           0       20.722021    0.361959    0.021948
    132          1           0       20.175972    3.074939   -0.843432
    133          1           0       21.576729    1.955615   -1.344981
    134          1           0       19.619281    1.921538   -1.823476
    135          1           0       21.084588    1.635761    2.139104
    136          1           0       22.158821    1.842258    0.921478
    137          1           0       20.930851    3.132580    1.380757
 ---------------------------------------------------------------------

 SCF Done:  E(RCAM-B3LYP) =  -2932.61006162     A.U. after   15 cycles

 Excitation energies and oscillator strengths:

 Excited State   1:      Singlet-A      2.2538 eV  550.10 nm  f=0.1641  <S**2>=0.000
     240 -> 242       -0.11908
     240 -> 243       -0.28230
     241 -> 242        0.62099
 This state for optimization and/or second-order correction.
 Total Energy, E(TD-HF/TD-KS) =  -2932.52723489
 Copying the excited state density for this state as the 1-particle RhoCI density.

 The electronic state is 1-A.
 Alpha  occ. eigenvalues --  -46.85542 -19.25173 -19.24955 -19.20813 -19.20496
 Alpha  occ. eigenvalues --  -19.20228 -14.40743 -14.40442 -14.40274 -14.38826
 Alpha  occ. eigenvalues --  -10.38573 -10.38044 -10.34696 -10.32687 -10.31421
 Alpha  occ. eigenvalues --  -10.31235 -10.30578 -10.30561 -10.29884 -10.29483
 Alpha  occ. eigenvalues --  -10.29395 -10.29262 -10.29025 -10.28938 -10.28563
 Alpha  occ. eigenvalues --  -10.28467 -10.28452 -10.28318 -10.28069 -10.28036
 Alpha  occ. eigenvalues --  -10.28015 -10.27993 -10.27962 -10.27471 -10.27463
 Alpha  occ. eigenvalues --  -10.27334 -10.27169 -10.26975 -10.26967 -10.26831
 Alpha  occ. eigenvalues --  -10.26760 -10.26757 -10.26616 -10.26492 -10.26255
 Alpha  occ. eigenvalues --  -10.26138 -10.26012 -10.25761 -10.25604 -10.25569
 Alpha  occ. eigenvalues --  -10.25439 -10.25271 -10.25174 -10.25165 -10.25048
 Alpha  occ. eigenvalues --  -10.25024 -10.24933 -10.24819 -10.24768 -10.24565
 Alpha  occ. eigenvalues --  -10.24453 -10.24358 -10.24345 -10.23882 -10.22378
 Alpha  occ. eigenvalues --   -3.14462  -1.89171  -1.88709  -1.88632  -1.17970
 Alpha  occ. eigenvalues --   -1.17584  -1.12673  -1.09292  -1.08797  -1.07371
 Alpha  occ. eigenvalues --   -1.04905  -1.03697  -1.02146  -0.91757  -0.91376
 Alpha  occ. eigenvalues --   -0.90646  -0.90431  -0.89739  -0.89050  -0.88889
 Alpha  occ. eigenvalues --   -0.88467  -0.88281  -0.87308  -0.86295  -0.85699
 Alpha  occ. eigenvalues --   -0.84905  -0.84280  -0.83464  -0.82789  -0.82200
 Alpha  occ. eigenvalues --   -0.81318  -0.80258  -0.79947  -0.79817  -0.78664
 Alpha  occ. eigenvalues --   -0.78043  -0.77153  -0.76795  -0.76292  -0.76009
 Alpha  occ. eigenvalues --   -0.75300  -0.74902  -0.74243  -0.72966  -0.72550
 Alpha  occ. eigenvalues --   -0.71449  -0.70378  -0.69517  -0.68991  -0.67899
 Alpha  occ. eigenvalues --   -0.67657  -0.67190  -0.65120  -0.64421  -0.64192
 Alpha  occ. eigenvalues --   -0.63874  -0.63444  -0.62838  -0.62802  -0.61882
 Alpha  occ. eigenvalues --   -0.61624  -0.60902  -0.60390  -0.60090  -0.59978
 Alpha  occ. eigenvalues --   -0.58801  -0.58107  -0.57820  -0.56388  -0.55976
 Alpha  occ. eigenvalues --   -0.55742  -0.55382  -0.55034  -0.54864  -0.54360
 Alpha  occ. eigenvalues --   -0.54008  -0.53798  -0.53573  -0.53343  -0.53260
 Alpha  occ. eigenvalues --   -0.53168  -0.52565  -0.52187  -0.51885  -0.51735
 Alpha  occ. eigenvalues --   -0.51532  -0.51393  -0.51070  -0.50938  -0.50816
 Alpha  occ. eigenvalues --   -0.50707  -0.50346  -0.49945  -0.49627  -0.49311
 Alpha  occ. eigenvalues --   -0.49018  -0.48886  -0.48597  -0.48459  -0.48130
 Alpha  occ. eigenvalues --   -0.48087  -0.47613  -0.47400  -0.47368  -0.47248
 Alpha  occ. eigenvalues --   -0.46974  -0.46560  -0.46483  -0.46361  -0.46099
 Alpha  occ. eigenvalues --   -0.45977  -0.45712  -0.45578  -0.45388  -0.45363
 Alpha  occ. eigenvalues --   -0.45040  -0.44844  -0.44555  -0.44406  -0.44098
 Alpha  occ. eigenvalues --   -0.43975  -0.43753  -0.43622  -0.43501  -0.43350
 Alpha  occ. eigenvalues --   -0.43123  -0.42862  -0.42762  -0.42758  -0.42535
 Alpha  occ. eigenvalues --   -0.42281  -0.42179  -0.42013  -0.41579  -0.41405
 Alpha  occ. eigenvalues --   -0.41249  -0.41124  -0.41038  -0.40305  -0.40266
 Alpha  occ. eigenvalues --   -0.39868  -0.39754  -0.39513  -0.39312  -0.38961
 Alpha  occ. eigenvalues --   -0.38530  -0.38487  -0.38347  -0.37971  -0.37970
 Alpha  occ. eigenvalues --   -0.37770  -0.37424  -0.37350  -0.36982  -0.36668
 Alpha  occ. eigenvalues --   -0.36630  -0.36004  -0.35937  -0.35835  -0.35440
 Alpha  occ. eigenvalues --   -0.34766  -0.34555  -0.34259  -0.33693  -0.33392
 Alpha  occ. eigenvalues --   -0.33349  -0.32710  -0.31750  -0.30554  -0.29745
 Alpha  occ. eigenvalues --   -0.29334  -0.28933  -0.28464  -0.27173  -0.23046
 Alpha  occ. eigenvalues --   -0.21890
 Alpha virt. eigenvalues --   -0.05682  -0.03348   0.01732   0.03668   0.04986
 Alpha virt. eigenvalues --    0.05233   0.06426   0.06806   0.07062   0.07434
 Alpha virt. eigenvalues --    0.08408   0.10335   0.10705   0.11292   0.11928

 Mulliken charges:
               1
     1  Mg   0.833112
     2  C    0.099349
     3  C   -0.263473
     4  C   -0.165548
     5  C   -0.154244
     6  N   -0.681253
     7  C    0.279398
     8  C   -0.161426
     9  C   -0.161974
    10  C    0.438147
    11  C   -0.301691
    12  C   -0.172017
    13  C   -0.270154
    14  C    0.598557
    15  O   -0.455380
    16  O   -0.490086
    17  N   -0.724189
    18  C    0.379866
    19  C    0.001347
    20  C    0.039092
    21  C    0.293400
    22  C   -0.369702
    23  C   -0.100568
    24  C   -0.234394
    25  N   -0.648220
    26  C    0.262777
    27  C    0.022372
    28  C   -0.027411
    29  C    0.277830
    30  C   -0.355726
    31  C   -0.235328
    32  C   -0.307196
    33  N   -0.695040
    34  C    0.216040
    35  C    0.105241
    36  C   -0.046135
    37  C    0.306234
    38  C   -0.369885
    39  C    0.360743
    40  O   -0.430862
    41  C   -0.365632
    42  C    0.619389
    43  O   -0.481072
    44  O   -0.452220
    45  C   -0.072541
    46  C    0.034922
    47  C   -0.134756
    48  C    0.104476
    49  C   -0.373864
    50  C   -0.211671
    51  C   -0.189701
    52  C   -0.187430
    53  C   -0.081271
    54  C   -0.269315
    55  C   -0.155903
    56  C   -0.188264
    57  C   -0.152996
    58  C   -0.057437
    59  C   -0.327188
    60  C   -0.182940
    61  C   -0.174744
    62  C   -0.154855
    63  C   -0.084167
    64  C   -0.294054
    65  C   -0.296237
    66  H    0.058058
    67  H    0.071725
    68  H    0.108068
    69  H    0.106876
    70  H    0.086058
    71  H    0.102112
    72  H    0.118910
    73  H    0.130326
    74  H    0.131943
    75  H    0.116138
    76  H    0.126955
    77  H    0.142977
    78  H    0.119113
    79  H    0.124263
    80  H    0.127270
    81  H    0.111890
    82  H    0.107450
    83  H    0.101956
    84  H    0.124619
    85  H    0.122443
    86  H    0.119316
    87  H    0.090281
    88  H    0.090202
    89  H    0.075933
    90  H    0.107913
    91  H    0.099039
    92  H    0.117700
    93  H    0.156910
    94  H    0.138890
    95  H    0.140003
    96  H    0.083052
    97  H    0.151793
    98  H    0.128619
    99  H    0.106449
   100  H    0.125897
   101  H    0.102342
   102  H    0.120472
   103  H    0.126925
   104  H    0.101731
   105  H    0.103934
   106  H    0.106809
   107  H    0.100645
   108  H    0.106432
   109  H    0.091768
   110  H    0.093116
   111  H    0.086793
   112  H    0.064858
   113  H    0.115822
   114  H    0.078601
   115  H    0.067785
   116  H    0.098788
   117  H    0.105534
   118  H    0.087848
   119  H    0.040966
   120  H    0.085046
   121  H    0.097736
   122  H    0.099194
   123  H    0.117231
   124  H    0.074832
   125  H    0.097689
   126  H    0.097244
   127  H    0.077327
   128  H    0.063583
   129  H    0.087997
   130  H    0.096868
   131  H    0.076616
   132  H    0.100516
   133  H    0.100761
   134  H    0.088365
   135  H    0.106653
   136  H    0.101896
   137  H    0.095998
 Sum of Mulliken charges =   0.00000

 Dipole moment (field-independent basis, Debye):
    X=              1.7373    Y=              5.5930    Z=             -0.2504  Tot=              5.8620
 Quadrupole moment (field-independent basis, Debye-Ang):
   XX=           -353.7450   YY=           -383.2881   ZZ=           -399.9601
   XY=            -35.7423   XZ=              9.7316   YZ=              0.9162

 Normal termination of Gaussian 09 at Sun Jun 30 22:18:47 2019.
