 Gaussian 09, Revision D.01,
 Gaussian 09:  ES64L-G09RevD.01 24-Apr-2013

 -------------------------------------
 # td=(NStates=1) CAM-B3LYP/6-31G(d,p)
 -------------------------------------

 --
 TD
 --
 Symbolic Z-matrix:
 Charge =  0 Multiplicity = 1

                         Standard orientation:
 ---------------------------------------------------------------------
 Center     Atomic      Atomic             Coordinates (Angstroms)
 Number     Number       Type             X           Y           Z
 ---------------------------------------------------------------------
      1         12           0       -7.209302    0.580482    0.107918
      2          6           0       -4.877143   -2.052362    0.340381
      3          6           0       -4.714134    2.825138    1.264072
      4          6           0       -9.428425    3.072749   -0.211525
      5          6           0       -9.623378   -1.703664   -0.849602
      6          7           0       -5.073550    0.454993    0.747279
      7          6           0       -4.256613   -0.755570    0.727659
      8          6           0       -2.854653   -0.435066    1.196305
      9          6           0       -3.005485    1.037804    1.687517
     10          6           0       -4.357539    1.530426    1.134647
     11          6           0       -2.910924    1.215081    3.165493
     12          6           0       -1.881933   -0.593939    0.060374
     13          6           0       -0.466108   -0.500925    0.432399
     14          6           0        0.503130   -0.711304   -0.631494
     15          8           0        0.208702   -1.019879   -1.762667
     16          8           0        1.787661   -0.517937   -0.146938
     17          7           0       -7.101015    2.647416    0.424195
     18          6           0       -6.084953    3.368276    0.837347
     19          6           0       -6.477845    4.724130    0.773486
     20          6           0       -7.818306    4.835535    0.412180
     21          6           0       -8.167577    3.502173    0.174391
     22          6           0       -5.763085    5.781860    1.396776
     23          6           0       -8.618995    5.874389    0.309724
     24          6           0       -8.270456    7.231064    0.162260
     25          7           0       -9.048175    0.621738   -0.553007
     26          6           0       -9.842969    1.756287   -0.531422
     27          6           0      -11.182170    1.539454   -1.011483
     28          6           0      -11.253380    0.140772   -1.199445
     29          6           0      -10.024591   -0.344455   -0.837405
     30          6           0      -12.349144    2.455943   -1.510722
     31          6           0      -12.345585   -0.757697   -1.618437
     32          6           0      -12.155141   -0.993453   -3.219942
     33          7           0       -7.252102   -1.337112   -0.178301
     34          6           0       -8.348264   -2.124832   -0.544800
     35          6           0       -7.911420   -3.548818   -0.518735
     36          6           0       -6.632882   -3.513505   -0.152503
     37          6           0       -6.229639   -2.118074    0.011357
     38          6           0       -8.767501   -4.787130   -0.638642
     39          6           0       -5.413247   -4.374460    0.183022
     40          8           0       -5.262530   -5.622606    0.213669
     41          6           0       -4.245579   -3.292596    0.397380
     42          6           0       -3.490304   -3.723766    1.796262
     43          8           0       -3.810889   -3.222261    2.899354
     44          8           0       -2.620936   -4.752787    1.715414
     45          6           0       -2.144500   -5.316929    2.847272
     46          6           0        2.812792   -0.698525   -1.308455
     47          6           0        4.120571   -0.485764   -0.532352
     48          6           0        5.166505    0.343032   -0.949072
     49          6           0        5.022800    1.158924   -2.211596
     50          6           0        6.489373    0.402314   -0.228787
     51          6           0        7.704204   -0.029932   -1.047128
     52          6           0        8.920036   -0.018447   -0.180832
     53          6           0       10.164589   -0.453877   -0.942319
     54          6           0       10.167367   -1.890932   -1.433650
     55          6           0       11.455501   -0.207537   -0.008298
     56          6           0       12.805106   -0.276739   -0.726041
     57          6           0       13.979043   -0.074506    0.183396
     58          6           0       15.367308   -0.093259   -0.450161
     59          6           0       15.681611   -1.530671   -1.005966
     60          6           0       16.531486    0.351612    0.496397
     61          6           0       17.873639    0.515734   -0.097889
     62          6           0       18.874320    1.289275    0.864404
     63          6           0       20.298796    1.256736    0.290425
     64          6           0       20.494035    1.956185   -1.049124
     65          6           0       21.159977    1.741795    1.425354
     66          1           0       -4.091935    3.609092    1.597112
     67          1           0      -10.071323    3.811790   -0.572417
     68          1           0      -10.398846   -2.482776   -1.095748
     69          1           0       -2.735919   -0.926321    2.146573
     70          1           0       -2.319296    1.646549    1.260990
     71          1           0       -1.987848    0.823936    3.708674
     72          1           0       -3.181566    2.383015    3.371797
     73          1           0       -3.810116    0.568399    3.621182
     74          1           0       -1.978200   -1.556559   -0.572187
     75          1           0       -2.223599    0.147753   -0.530682
     76          1           0       -0.110420    0.410578    0.838011
     77          1           0       -0.182619   -1.140235    1.249837
     78          1           0       -5.016878    6.340426    0.710032
     79          1           0       -6.474907    6.521639    1.803748
     80          1           0       -5.359764    5.398356    2.350350
     81          1           0       -9.705217    5.794178    0.282721
     82          1           0       -8.908559    8.181016    0.084832
     83          1           0       -7.217364    7.444386    0.196224
     84          1           0      -12.014012    3.214394   -2.165073
     85          1           0      -13.237634    1.843097   -1.848059
     86          1           0      -12.919104    3.088233   -0.642914
     87          1           0      -12.514134   -1.710497   -1.171831
     88          1           0      -13.323891   -0.343713   -1.372985
     89          1           0      -12.930766   -1.589320   -3.640808
     90          1           0      -12.073545   -0.089042   -3.774804
     91          1           0      -11.055178   -1.573117   -3.231896
     92          1           0       -9.210128   -5.003461   -1.679362
     93          1           0       -8.028110   -5.652176   -0.343824
     94          1           0       -9.657824   -4.831641    0.121920
     95          1           0       -3.482990   -3.311447   -0.418704
     96          1           0       -1.184299   -4.668621    3.205769
     97          1           0       -2.944922   -5.560432    3.684419
     98          1           0       -1.652149   -6.223304    2.663692
     99          1           0        2.759878   -1.625231   -1.756370
    100          1           0        2.499045    0.170764   -1.742398
    101          1           0        4.178120   -0.942842    0.333206
    102          1           0        3.973070    1.069354   -2.681144
    103          1           0        5.358346    2.322461   -2.207828
    104          1           0        5.710558    0.894276   -3.037094
    105          1           0        6.775118    1.321005   -0.023791
    106          1           0        6.624635   -0.292478    0.682316
    107          1           0        7.536421   -1.024619   -1.618964
    108          1           0        7.960446    0.745040   -1.708769
    109          1           0        9.206536    0.808254    0.366980
    110          1           0        8.647805   -0.712845    0.527491
    111          1           0       10.017393    0.013779   -1.982514
    112          1           0        9.454371   -1.970363   -2.300247
    113          1           0       11.136576   -2.097542   -1.721154
    114          1           0       10.063964   -2.747530   -0.828761
    115          1           0       11.399803    0.917182    0.427397
    116          1           0       11.487444   -0.653988    0.804027
    117          1           0       12.907272   -1.339187   -1.042131
    118          1           0       12.793014    0.476621   -1.516123
    119          1           0       13.863635    0.885068    0.819376
    120          1           0       13.960306   -0.889865    0.887737
    121          1           0       15.426495    0.570673   -1.178992
    122          1           0       15.818902   -2.115843   -0.247607
    123          1           0       14.941617   -1.794591   -1.694685
    124          1           0       16.479793   -1.583214   -1.827338
    125          1           0       16.264668    1.221430    0.954234
    126          1           0       16.672344   -0.281224    1.566392
    127          1           0       18.177227   -0.563481   -0.317370
    128          1           0       17.911188    1.059129   -1.104366
    129          1           0       18.393751    2.323349    1.109782
    130          1           0       18.715602    0.925504    1.863377
    131          1           0       20.465725    0.184138    0.106089
    132          1           0       20.292873    3.004565   -0.808473
    133          1           0       21.570760    2.075712   -1.256536
    134          1           0       19.942932    1.662375   -2.045257
    135          1           0       20.969191    1.220010    2.358856
    136          1           0       22.051908    1.667301    1.185404
    137          1           0       20.943840    2.953678    1.557095
 ---------------------------------------------------------------------

 SCF Done:  E(RCAM-B3LYP) =  -2932.62884050     A.U. after   16 cycles

 Excitation energies and oscillator strengths:

 Excited State   1:      Singlet-A      2.1021 eV  589.81 nm  f=0.2183  <S**2>=0.000
     240 -> 243       -0.26975
     241 -> 242        0.64376
 This state for optimization and/or second-order correction.
 Total Energy, E(TD-HF/TD-KS) =  -2932.55159003
 Copying the excited state density for this state as the 1-particle RhoCI density.

 The electronic state is 1-A.
 Alpha  occ. eigenvalues --  -46.83628 -19.27506 -19.25219 -19.21974 -19.21067
 Alpha  occ. eigenvalues --  -19.20798 -14.41354 -14.39771 -14.39212 -14.39019
 Alpha  occ. eigenvalues --  -10.40721 -10.38360 -10.37207 -10.32890 -10.32250
 Alpha  occ. eigenvalues --  -10.31344 -10.29884 -10.29786 -10.29771 -10.29710
 Alpha  occ. eigenvalues --  -10.29419 -10.28774 -10.28635 -10.28465 -10.28193
 Alpha  occ. eigenvalues --  -10.27982 -10.27914 -10.27715 -10.27682 -10.27535
 Alpha  occ. eigenvalues --  -10.27469 -10.27164 -10.27069 -10.27016 -10.27004
 Alpha  occ. eigenvalues --  -10.26804 -10.26725 -10.26594 -10.26470 -10.26308
 Alpha  occ. eigenvalues --  -10.26292 -10.26082 -10.26073 -10.25911 -10.25873
 Alpha  occ. eigenvalues --  -10.25672 -10.25599 -10.25378 -10.25373 -10.25290
 Alpha  occ. eigenvalues --  -10.25198 -10.25113 -10.25044 -10.25004 -10.24994
 Alpha  occ. eigenvalues --  -10.24987 -10.24944 -10.24888 -10.24881 -10.24840
 Alpha  occ. eigenvalues --  -10.24637 -10.23848 -10.23240 -10.23085 -10.22975
 Alpha  occ. eigenvalues --   -3.12872  -1.87560  -1.87135  -1.87051  -1.19560
 Alpha  occ. eigenvalues --   -1.16064  -1.09793  -1.08177  -1.08080  -1.05284
 Alpha  occ. eigenvalues --   -1.04566  -1.02372  -1.01690  -0.93528  -0.91930
 Alpha  occ. eigenvalues --   -0.91461  -0.90752  -0.90504  -0.89482  -0.89096
 Alpha  occ. eigenvalues --   -0.88688  -0.88106  -0.87672  -0.86900  -0.86592
 Alpha  occ. eigenvalues --   -0.85828  -0.84632  -0.83658  -0.83172  -0.82031
 Alpha  occ. eigenvalues --   -0.81620  -0.81509  -0.80600  -0.79642  -0.78143
 Alpha  occ. eigenvalues --   -0.77671  -0.77079  -0.76685  -0.76448  -0.75956
 Alpha  occ. eigenvalues --   -0.75790  -0.74826  -0.74672  -0.73357  -0.72319
 Alpha  occ. eigenvalues --   -0.71223  -0.70797  -0.70143  -0.69522  -0.68678
 Alpha  occ. eigenvalues --   -0.67531  -0.66868  -0.65466  -0.65075  -0.64779
 Alpha  occ. eigenvalues --   -0.64583  -0.64421  -0.63837  -0.62981  -0.62458
 Alpha  occ. eigenvalues --   -0.62386  -0.61059  -0.60924  -0.59909  -0.59322
 Alpha  occ. eigenvalues --   -0.58842  -0.58311  -0.57954  -0.57529  -0.57155
 Alpha  occ. eigenvalues --   -0.56773  -0.56118  -0.55926  -0.55667  -0.55104
 Alpha  occ. eigenvalues --   -0.54769  -0.54721  -0.54447  -0.53714  -0.53448
 Alpha  occ. eigenvalues --   -0.52947  -0.52889  -0.52378  -0.52265  -0.51983
 Alpha  occ. eigenvalues --   -0.51659  -0.51385  -0.51293  -0.51033  -0.50995
 Alpha  occ. eigenvalues --   -0.50773  -0.50284  -0.49999  -0.49757  -0.49603
 Alpha  occ. eigenvalues --   -0.49311  -0.49134  -0.49011  -0.48499  -0.48019
 Alpha  occ. eigenvalues --   -0.47986  -0.47716  -0.47689  -0.47594  -0.47393
 Alpha  occ. eigenvalues --   -0.47085  -0.46751  -0.46366  -0.46234  -0.46040
 Alpha  occ. eigenvalues --   -0.45690  -0.45545  -0.45459  -0.45072  -0.44856
 Alpha  occ. eigenvalues --   -0.44767  -0.44711  -0.44420  -0.44200  -0.44137
 Alpha  occ. eigenvalues --   -0.43742  -0.43658  -0.43545  -0.43307  -0.42996
 Alpha  occ. eigenvalues --   -0.42909  -0.42765  -0.42660  -0.42392  -0.42282
 Alpha  occ. eigenvalues --   -0.42018  -0.41924  -0.41673  -0.41654  -0.41335
 Alpha  occ. eigenvalues --   -0.41145  -0.40908  -0.40788  -0.40528  -0.40394
 Alpha  occ. eigenvalues --   -0.39915  -0.39889  -0.39759  -0.39562  -0.39405
 Alpha  occ. eigenvalues --   -0.39017  -0.38985  -0.38708  -0.38620  -0.37801
 Alpha  occ. eigenvalues --   -0.37501  -0.37398  -0.37252  -0.36901  -0.36377
 Alpha  occ. eigenvalues --   -0.36294  -0.36285  -0.36043  -0.35998  -0.35686
 Alpha  occ. eigenvalues --   -0.35472  -0.35304  -0.35181  -0.33693  -0.33646
 Alpha  occ. eigenvalues --   -0.33581  -0.32846  -0.31633  -0.31468  -0.30746
 Alpha  occ. eigenvalues --   -0.30347  -0.28996  -0.27976  -0.25755  -0.23038
 Alpha  occ. eigenvalues --   -0.21464
 Alpha virt. eigenvalues --   -0.06277  -0.03617   0.00528   0.03303   0.04953
 Alpha virt. eigenvalues --    0.05322   0.05912   0.06736   0.06927   0.07351
 Alpha virt. eigenvalues --    0.08411   0.10924   0.11499   0.11797   0.12290

 Mulliken charges:
               1
     1  Mg   0.830521
     2  C    0.089188
     3  C   -0.184313
     4  C   -0.147839
     5  C   -0.188338
     6  N   -0.630949
     7  C    0.284495
     8  C   -0.175783
     9  C   -0.136636
    10  C    0.368343
    11  C   -0.299187
    12  C   -0.154608
    13  C   -0.270653
    14  C    0.621222
    15  O   -0.483708
    16  O   -0.542040
    17  N   -0.698098
    18  C    0.310357
    19  C   -0.025966
    20  C    0.161633
    21  C    0.262549
    22  C   -0.404843
    23  C   -0.150562
    24  C   -0.266235
    25  N   -0.699571
    26  C    0.271500
    27  C    0.008230
    28  C    0.062632
    29  C    0.275678
    30  C   -0.371602
    31  C   -0.262068
    32  C   -0.305178
    33  N   -0.776973
    34  C    0.272674
    35  C    0.016355
    36  C   -0.002493
    37  C    0.362081
    38  C   -0.388871
    39  C    0.404847
    40  O   -0.470833
    41  C   -0.333590
    42  C    0.591302
    43  O   -0.478103
    44  O   -0.402557
    45  C   -0.075994
    46  C    0.024873
    47  C   -0.145620
    48  C    0.139319
    49  C   -0.378776
    50  C   -0.212143
    51  C   -0.207592
    52  C   -0.160769
    53  C   -0.063609
    54  C   -0.319388
    55  C   -0.171158
    56  C   -0.173821
    57  C   -0.180277
    58  C   -0.050747
    59  C   -0.320020
    60  C   -0.174452
    61  C   -0.169195
    62  C   -0.172393
    63  C   -0.055095
    64  C   -0.317452
    65  C   -0.281543
    66  H    0.084198
    67  H    0.095415
    68  H    0.104925
    69  H    0.137393
    70  H    0.106467
    71  H    0.109127
    72  H    0.093326
    73  H    0.105423
    74  H    0.115094
    75  H    0.127505
    76  H    0.141982
    77  H    0.145127
    78  H    0.105735
    79  H    0.118737
    80  H    0.111567
    81  H    0.094903
    82  H    0.109781
    83  H    0.101447
    84  H    0.135791
    85  H    0.121907
    86  H    0.090280
    87  H    0.114609
    88  H    0.097735
    89  H    0.106984
    90  H    0.124294
    91  H    0.083972
    92  H    0.122556
    93  H    0.143536
    94  H    0.121718
    95  H    0.158854
    96  H    0.084432
    97  H    0.125015
    98  H    0.131552
    99  H    0.153888
   100  H    0.148199
   101  H    0.095319
   102  H    0.103566
   103  H    0.096278
   104  H    0.125663
   105  H    0.113601
   106  H    0.089263
   107  H    0.096286
   108  H    0.098446
   109  H    0.097050
   110  H    0.095623
   111  H    0.080554
   112  H    0.090599
   113  H    0.106185
   114  H    0.099527
   115  H    0.052726
   116  H    0.104967
   117  H    0.099079
   118  H    0.095966
   119  H    0.072473
   120  H    0.089321
   121  H    0.091469
   122  H    0.116704
   123  H    0.104834
   124  H    0.086704
   125  H    0.093177
   126  H    0.041917
   127  H    0.087872
   128  H    0.081692
   129  H    0.071344
   130  H    0.093491
   131  H    0.092617
   132  H    0.102335
   133  H    0.099921
   134  H    0.105237
   135  H    0.108799
   136  H    0.104478
   137  H    0.065289
 Sum of Mulliken charges =   0.00000

 Dipole moment (field-independent basis, Debye):
    X=              1.9878    Y=              2.6947    Z=             -0.4025  Tot=              3.3726
 Quadrupole moment (field-independent basis, Debye-Ang):
   XX=           -321.3820   YY=           -394.1966   ZZ=           -399.7409
   XY=            -13.9442   XZ=              9.9740   YZ=             -3.0278

 Normal termination of Gaussian 09 at Thu Jun 27 21:44:19 2019.
