 Gaussian 09, Revision D.01,
 Gaussian 09:  ES64L-G09RevD.01 24-Apr-2013

 -------------------------------------
 # td=(NStates=1) CAM-B3LYP/6-31G(d,p)
 -------------------------------------

 --
 TD
 --
 Symbolic Z-matrix:
 Charge =  0 Multiplicity = 1

                         Standard orientation:
 ---------------------------------------------------------------------
 Center     Atomic      Atomic             Coordinates (Angstroms)
 Number     Number       Type             X           Y           Z
 ---------------------------------------------------------------------
      1         12           0       -7.085663    0.690630    0.020434
      2          6           0       -4.858760   -1.985566    0.488454
      3          6           0       -4.869868    2.795278    1.126053
      4          6           0       -9.381414    3.033269   -0.345253
      5          6           0       -9.528275   -1.757790   -0.914704
      6          7           0       -5.097974    0.405021    0.757273
      7          6           0       -4.399873   -0.766456    0.781896
      8          6           0       -2.955819   -0.362998    1.213685
      9          6           0       -3.048816    1.101407    1.726385
     10          6           0       -4.477772    1.493866    1.144828
     11          6           0       -2.966534    1.168729    3.291384
     12          6           0       -1.926807   -0.439649    0.072676
     13          6           0       -0.501461   -0.443261    0.478797
     14          6           0        0.538016   -0.678729   -0.525635
     15          8           0        0.245624   -1.026921   -1.658005
     16          8           0        1.821892   -0.487421   -0.101881
     17          7           0       -7.120264    2.649184    0.298173
     18          6           0       -6.114251    3.362988    0.698004
     19          6           0       -6.518279    4.727051    0.937458
     20          6           0       -7.825407    4.811628    0.380833
     21          6           0       -8.222994    3.477317    0.094299
     22          6           0       -5.644766    5.922147    1.456647
     23          6           0       -8.656070    6.027379    0.232341
     24          6           0       -8.067039    7.278773    0.049678
     25          7           0       -9.150142    0.683003   -0.483833
     26          6           0       -9.923206    1.746328   -0.559609
     27          6           0      -11.210956    1.465592   -1.062026
     28          6           0      -11.196538    0.134458   -1.159352
     29          6           0       -9.899892   -0.351502   -0.821769
     30          6           0      -12.188706    2.553729   -1.356344
     31          6           0      -12.343244   -0.774826   -1.701605
     32          6           0      -12.276910   -1.299567   -3.235193
     33          7           0       -7.279365   -1.420508   -0.228258
     34          6           0       -8.274265   -2.213359   -0.594644
     35          6           0       -7.809138   -3.578960   -0.533137
     36          6           0       -6.501678   -3.571618   -0.091695
     37          6           0       -6.283351   -2.180138    0.073082
     38          6           0       -8.670291   -4.745823   -0.899317
     39          6           0       -5.304518   -4.352885    0.142191
     40          8           0       -5.097588   -5.517627   -0.047422
     41          6           0       -4.175096   -3.255724    0.539423
     42          6           0       -3.689194   -3.648363    1.826248
     43          8           0       -3.877385   -3.118306    2.894699
     44          8           0       -2.871575   -4.757659    1.661427
     45          6           0       -2.216747   -5.322793    2.901192
     46          6           0        2.815593   -0.751251   -1.117871
     47          6           0        4.192269   -0.372201   -0.508331
     48          6           0        5.169317    0.337913   -1.052186
     49          6           0        5.133969    1.206802   -2.304737
     50          6           0        6.392134    0.435282   -0.165982
     51          6           0        7.686437   -0.239683   -0.809038
     52          6           0        9.003739   -0.061224    0.018034
     53          6           0       10.201525   -0.503792   -0.807077
     54          6           0       10.076991   -2.059290   -1.198470
     55          6           0       11.392327   -0.251185    0.136828
     56          6           0       12.810081   -0.475743   -0.608983
     57          6           0       13.956104   -0.157776    0.256537
     58          6           0       15.402179   -0.153115   -0.367512
     59          6           0       15.720718   -1.635303   -0.762349
     60          6           0       16.429064    0.477722    0.581578
     61          6           0       17.772826    0.425283   -0.031029
     62          6           0       18.944836    1.383028    0.650906
     63          6           0       20.271010    1.310660    0.095538
     64          6           0       20.445326    1.967558   -1.395369
     65          6           0       21.291865    1.910024    0.944931
     66          1           0       -4.136886    3.398755    1.533895
     67          1           0      -10.161834    3.889427   -0.519198
     68          1           0      -10.467232   -2.256505   -1.168848
     69          1           0       -2.706503   -0.860779    2.196782
     70          1           0       -2.369664    1.503538    1.298953
     71          1           0       -2.078419    0.740222    3.756771
     72          1           0       -2.963821    2.304414    3.516723
     73          1           0       -3.816967    0.880662    3.664326
     74          1           0       -2.203610   -1.565282   -0.453440
     75          1           0       -2.031400    0.153988   -0.662591
     76          1           0       -0.282080    0.555876    0.744232
     77          1           0       -0.294133   -0.907591    1.313692
     78          1           0       -4.770719    6.177839    0.743295
     79          1           0       -6.373335    6.635582    1.831554
     80          1           0       -4.962735    5.710285    2.388138
     81          1           0       -9.670999    5.773100    0.159190
     82          1           0       -8.656078    8.042753    0.028103
     83          1           0       -7.080022    7.525264   -0.211623
     84          1           0      -11.846529    3.227863   -2.361071
     85          1           0      -13.201991    2.029755   -1.511608
     86          1           0      -12.453797    3.221699   -0.449887
     87          1           0      -12.514694   -1.698337   -1.050485
     88          1           0      -13.393408   -0.266647   -1.503865
     89          1           0      -13.020803   -1.874772   -3.453755
     90          1           0      -12.282342   -0.488954   -3.938394
     91          1           0      -11.367570   -1.771601   -3.360798
     92          1           0       -9.243731   -4.538501   -1.897642
     93          1           0       -7.989529   -5.558156   -1.030222
     94          1           0       -9.613617   -5.167930   -0.254911
     95          1           0       -3.414074   -3.274211   -0.254208
     96          1           0       -1.702207   -4.628012    3.346023
     97          1           0       -2.988540   -5.846345    3.458286
     98          1           0       -1.391900   -6.041709    2.512793
     99          1           0        2.682186   -1.779491   -1.219445
    100          1           0        2.657609   -0.138120   -2.200218
    101          1           0        4.463386   -0.814139    0.397361
    102          1           0        4.237685    1.357690   -2.757172
    103          1           0        5.334801    2.206214   -1.972553
    104          1           0        5.936236    0.775257   -3.036397
    105          1           0        6.400891    1.632687   -0.176076
    106          1           0        6.172176    0.075398    0.984619
    107          1           0        7.646110   -1.442190   -1.094461
    108          1           0        7.732716    0.283934   -1.642852
    109          1           0        9.278362    0.889975    0.128696
    110          1           0        9.022647   -0.535231    0.977465
    111          1           0       10.325774    0.041537   -1.642384
    112          1           0        9.296870   -2.085104   -2.051020
    113          1           0       11.046568   -2.668099   -1.604593
    114          1           0        9.502638   -2.627695   -0.296702
    115          1           0       11.365063    0.723662    0.686226
    116          1           0       11.277339   -0.850620    1.172830
    117          1           0       12.965814   -1.559734   -0.899077
    118          1           0       12.606360    0.049583   -1.491238
    119          1           0       13.524719    0.868781    0.955822
    120          1           0       13.911168   -0.626380    1.039966
    121          1           0       15.586163    0.443689   -1.356637
    122          1           0       15.761673   -2.278723    0.168979
    123          1           0       14.902686   -2.006858   -1.228960
    124          1           0       16.646030   -1.878042   -1.262809
    125          1           0       16.076723    1.550127    0.663314
    126          1           0       16.354286   -0.050973    1.471548
    127          1           0       18.291459   -0.666372    0.035704
    128          1           0       17.879432    0.742500   -1.156186
    129          1           0       18.538039    2.563346    0.693956
    130          1           0       18.819140    1.166559    1.612916
    131          1           0       20.481853    0.323103   -0.003548
    132          1           0       20.302626    3.171514   -1.352305
    133          1           0       21.477665    1.745948   -1.767304
    134          1           0       19.450034    1.749916   -2.008350
    135          1           0       21.219648    1.566990    1.997850
    136          1           0       22.406454    1.849618    0.701546
    137          1           0       21.354215    2.981212    1.017921
 ---------------------------------------------------------------------

 SCF Done:  E(RCAM-B3LYP) =  -2932.53086358     A.U. after   15 cycles

 Excitation energies and oscillator strengths:

 Excited State   1:      Singlet-A      2.2401 eV  553.48 nm  f=0.2426  <S**2>=0.000
     240 -> 243        0.25322
     241 -> 242        0.64552
 This state for optimization and/or second-order correction.
 Total Energy, E(TD-HF/TD-KS) =  -2932.44854241
 Copying the excited state density for this state as the 1-particle RhoCI density.

 The electronic state is 1-A.
 Alpha  occ. eigenvalues --  -46.85337 -19.25958 -19.24344 -19.21174 -19.20261
 Alpha  occ. eigenvalues --  -19.20054 -14.40274 -14.39661 -14.39051 -14.38905
 Alpha  occ. eigenvalues --  -10.38556 -10.38140 -10.35743 -10.32486 -10.30530
 Alpha  occ. eigenvalues --  -10.30011 -10.29775 -10.29768 -10.29290 -10.28576
 Alpha  occ. eigenvalues --  -10.28516 -10.28506 -10.28463 -10.28371 -10.28265
 Alpha  occ. eigenvalues --  -10.28161 -10.28138 -10.27797 -10.27613 -10.27598
 Alpha  occ. eigenvalues --  -10.27537 -10.27366 -10.27343 -10.27267 -10.27255
 Alpha  occ. eigenvalues --  -10.27141 -10.27085 -10.27063 -10.27001 -10.26985
 Alpha  occ. eigenvalues --  -10.26546 -10.26459 -10.26450 -10.26282 -10.26249
 Alpha  occ. eigenvalues --  -10.25838 -10.25788 -10.25695 -10.25627 -10.25375
 Alpha  occ. eigenvalues --  -10.25205 -10.25143 -10.25098 -10.25095 -10.25055
 Alpha  occ. eigenvalues --  -10.24973 -10.24823 -10.24817 -10.24750 -10.24728
 Alpha  occ. eigenvalues --  -10.24085 -10.24000 -10.23906 -10.23829 -10.23599
 Alpha  occ. eigenvalues --   -3.14226  -1.88949  -1.88430  -1.88418  -1.17396
 Alpha  occ. eigenvalues --   -1.15603  -1.12479  -1.08425  -1.07314  -1.07137
 Alpha  occ. eigenvalues --   -1.05773  -1.04872  -1.03442  -0.93447  -0.91301
 Alpha  occ. eigenvalues --   -0.90932  -0.90553  -0.89852  -0.89741  -0.88957
 Alpha  occ. eigenvalues --   -0.88409  -0.87990  -0.87766  -0.87050  -0.86452
 Alpha  occ. eigenvalues --   -0.85100  -0.84753  -0.83315  -0.82420  -0.82338
 Alpha  occ. eigenvalues --   -0.81222  -0.81005  -0.80695  -0.79553  -0.78447
 Alpha  occ. eigenvalues --   -0.78229  -0.77179  -0.76523  -0.76309  -0.75889
 Alpha  occ. eigenvalues --   -0.74926  -0.74453  -0.74035  -0.73581  -0.72742
 Alpha  occ. eigenvalues --   -0.71966  -0.71210  -0.70315  -0.69777  -0.69177
 Alpha  occ. eigenvalues --   -0.69050  -0.67052  -0.66353  -0.65558  -0.65509
 Alpha  occ. eigenvalues --   -0.64411  -0.64372  -0.63457  -0.62853  -0.62321
 Alpha  occ. eigenvalues --   -0.61888  -0.60769  -0.60414  -0.59749  -0.59520
 Alpha  occ. eigenvalues --   -0.58947  -0.58675  -0.58279  -0.57919  -0.56897
 Alpha  occ. eigenvalues --   -0.56244  -0.55523  -0.55108  -0.54930  -0.54397
 Alpha  occ. eigenvalues --   -0.54054  -0.53797  -0.53646  -0.53375  -0.53067
 Alpha  occ. eigenvalues --   -0.52805  -0.52480  -0.52345  -0.52009  -0.51573
 Alpha  occ. eigenvalues --   -0.51535  -0.51350  -0.51085  -0.50912  -0.50799
 Alpha  occ. eigenvalues --   -0.50433  -0.50377  -0.50213  -0.49868  -0.49449
 Alpha  occ. eigenvalues --   -0.49380  -0.49083  -0.48789  -0.48618  -0.48423
 Alpha  occ. eigenvalues --   -0.48251  -0.48095  -0.47991  -0.47869  -0.47478
 Alpha  occ. eigenvalues --   -0.47209  -0.46570  -0.46494  -0.46394  -0.45925
 Alpha  occ. eigenvalues --   -0.45743  -0.45657  -0.45528  -0.45396  -0.45094
 Alpha  occ. eigenvalues --   -0.44848  -0.44612  -0.44474  -0.44190  -0.44012
 Alpha  occ. eigenvalues --   -0.43866  -0.43721  -0.43686  -0.43566  -0.43223
 Alpha  occ. eigenvalues --   -0.43176  -0.43128  -0.42583  -0.42498  -0.42348
 Alpha  occ. eigenvalues --   -0.42185  -0.42152  -0.42095  -0.41361  -0.41265
 Alpha  occ. eigenvalues --   -0.41166  -0.40979  -0.40728  -0.40675  -0.40440
 Alpha  occ. eigenvalues --   -0.40210  -0.39999  -0.39718  -0.39660  -0.39522
 Alpha  occ. eigenvalues --   -0.39065  -0.38774  -0.38674  -0.38074  -0.37524
 Alpha  occ. eigenvalues --   -0.37353  -0.37169  -0.36631  -0.36508  -0.36074
 Alpha  occ. eigenvalues --   -0.35801  -0.35619  -0.35443  -0.35417  -0.35204
 Alpha  occ. eigenvalues --   -0.34952  -0.34490  -0.33820  -0.33243  -0.33146
 Alpha  occ. eigenvalues --   -0.32940  -0.32693  -0.32530  -0.31250  -0.30313
 Alpha  occ. eigenvalues --   -0.30119  -0.29885  -0.29033  -0.27057  -0.22937
 Alpha  occ. eigenvalues --   -0.21971
 Alpha virt. eigenvalues --   -0.06226  -0.02888   0.01862   0.03415   0.05033
 Alpha virt. eigenvalues --    0.06462   0.06824   0.07099   0.07532   0.07730
 Alpha virt. eigenvalues --    0.09722   0.10835   0.11522   0.11650   0.11960

 Mulliken charges:
               1
     1  Mg   0.831020
     2  C    0.073630
     3  C   -0.191715
     4  C   -0.205079
     5  C   -0.139284
     6  N   -0.675655
     7  C    0.316224
     8  C   -0.200082
     9  C   -0.089348
    10  C    0.334682
    11  C   -0.312771
    12  C   -0.139250
    13  C   -0.253462
    14  C    0.601050
    15  O   -0.480061
    16  O   -0.492811
    17  N   -0.737864
    18  C    0.347203
    19  C   -0.013877
    20  C    0.008668
    21  C    0.341464
    22  C   -0.366825
    23  C   -0.086103
    24  C   -0.232063
    25  N   -0.673430
    26  C    0.268743
    27  C    0.095260
    28  C   -0.020980
    29  C    0.270827
    30  C   -0.370225
    31  C   -0.269733
    32  C   -0.306440
    33  N   -0.696456
    34  C    0.300264
    35  C   -0.015758
    36  C    0.064579
    37  C    0.298573
    38  C   -0.378430
    39  C    0.344953
    40  O   -0.427276
    41  C   -0.349451
    42  C    0.640621
    43  O   -0.476701
    44  O   -0.498434
    45  C   -0.073290
    46  C    0.028943
    47  C   -0.130418
    48  C    0.116705
    49  C   -0.352491
    50  C   -0.230807
    51  C   -0.162320
    52  C   -0.170931
    53  C   -0.054570
    54  C   -0.305544
    55  C   -0.199708
    56  C   -0.168017
    57  C   -0.139481
    58  C   -0.068666
    59  C   -0.321958
    60  C   -0.151633
    61  C   -0.188342
    62  C   -0.163186
    63  C   -0.025493
    64  C   -0.310690
    65  C   -0.317975
    66  H    0.062226
    67  H    0.078369
    68  H    0.106979
    69  H    0.123649
    70  H    0.079113
    71  H    0.113982
    72  H    0.085746
    73  H    0.139344
    74  H    0.068737
    75  H    0.118087
    76  H    0.134719
    77  H    0.139929
    78  H    0.119951
    79  H    0.134091
    80  H    0.096895
    81  H    0.097557
    82  H    0.100477
    83  H    0.126545
    84  H    0.103443
    85  H    0.105967
    86  H    0.116793
    87  H    0.098639
    88  H    0.083410
    89  H    0.118947
    90  H    0.111468
    91  H    0.111987
    92  H    0.107109
    93  H    0.145202
    94  H    0.111226
    95  H    0.179727
    96  H    0.139777
    97  H    0.140044
    98  H    0.115015
    99  H    0.132639
   100  H    0.101158
   101  H    0.085385
   102  H    0.124667
   103  H    0.120440
   104  H    0.113858
   105  H    0.078044
   106  H    0.083473
   107  H    0.082428
   108  H    0.106589
   109  H    0.104775
   110  H    0.099743
   111  H    0.099432
   112  H    0.094313
   113  H    0.092157
   114  H    0.088359
   115  H    0.090517
   116  H    0.062971
   117  H    0.090805
   118  H    0.103057
   119  H    0.015465
   120  H    0.112154
   121  H    0.075690
   122  H    0.082907
   123  H    0.111482
   124  H    0.112209
   125  H    0.101559
   126  H    0.099726
   127  H    0.071566
   128  H    0.082620
   129  H    0.043719
   130  H    0.105041
   131  H    0.102132
   132  H    0.080172
   133  H    0.111549
   134  H    0.090258
   135  H    0.091321
   136  H    0.085390
   137  H    0.106757
 Sum of Mulliken charges =   0.00000

 Dipole moment (field-independent basis, Debye):
    X=              1.1007    Y=              4.3736    Z=              0.1495  Tot=              4.5124
 Quadrupole moment (field-independent basis, Debye-Ang):
   XX=           -343.3387   YY=           -391.3531   ZZ=           -396.3674
   XY=            -25.3270   XZ=             14.5748   YZ=             -6.4653

 Normal termination of Gaussian 09 at Fri Jun 28 13:44:19 2019.
