 Gaussian 09, Revision D.01,
 Gaussian 09:  ES64L-G09RevD.01 24-Apr-2013

 -------------------------------------
 # td=(NStates=1) CAM-B3LYP/6-31G(d,p)
 -------------------------------------

 --
 TD
 --
 Symbolic Z-matrix:
 Charge =  0 Multiplicity = 1

                         Standard orientation:
 ---------------------------------------------------------------------
 Center     Atomic      Atomic             Coordinates (Angstroms)
 Number     Number       Type             X           Y           Z
 ---------------------------------------------------------------------
      1         12           0       -7.124583    0.610213    0.000584
      2          6           0       -4.873758   -1.937145    0.565291
      3          6           0       -4.959700    2.835779    1.207033
      4          6           0       -9.550854    3.173879   -0.431696
      5          6           0       -9.556346   -1.718628   -0.970356
      6          7           0       -5.136873    0.432053    0.663268
      7          6           0       -4.423283   -0.663604    0.779051
      8          6           0       -2.961211   -0.334732    1.303831
      9          6           0       -3.131645    1.117712    1.669863
     10          6           0       -4.519609    1.462824    1.159591
     11          6           0       -2.924744    1.370981    3.243694
     12          6           0       -1.922578   -0.597891    0.121897
     13          6           0       -0.539258   -0.459637    0.781445
     14          6           0        0.543676   -0.686474   -0.371943
     15          8           0        0.335703   -1.156346   -1.488540
     16          8           0        1.785983   -0.417732    0.101581
     17          7           0       -7.213594    2.522783    0.345099
     18          6           0       -6.175027    3.391219    0.845742
     19          6           0       -6.544054    4.778619    0.873845
     20          6           0       -7.908429    4.769570    0.424688
     21          6           0       -8.235440    3.441568    0.099799
     22          6           0       -5.698121    5.816868    1.319635
     23          6           0       -8.680779    6.004268    0.460756
     24          6           0       -8.320367    7.249871    0.251349
     25          7           0       -9.173808    0.665324   -0.706819
     26          6           0       -9.937331    1.769385   -0.740726
     27          6           0      -11.270710    1.369073   -1.216340
     28          6           0      -11.236011   -0.015732   -1.353542
     29          6           0       -9.949750   -0.453691   -1.066705
     30          6           0      -12.332123    2.452736   -1.496115
     31          6           0      -12.399493   -0.763677   -1.835792
     32          6           0      -12.208785   -1.174871   -3.386975
     33          7           0       -7.253145   -1.412824   -0.273053
     34          6           0       -8.256142   -2.225573   -0.593517
     35          6           0       -7.802162   -3.522453   -0.608794
     36          6           0       -6.557589   -3.562221   -0.156869
     37          6           0       -6.253644   -2.148377    0.025743
     38          6           0       -8.655015   -4.785493   -0.953006
     39          6           0       -5.436938   -4.340508    0.320780
     40          8           0       -5.237512   -5.549975    0.266999
     41          6           0       -4.302401   -3.322987    0.668869
     42          6           0       -3.564568   -3.620310    1.961257
     43          8           0       -3.622716   -3.097396    2.976963
     44          8           0       -2.742487   -4.778932    1.766524
     45          6           0       -2.103962   -5.199130    2.956691
     46          6           0        2.791714   -0.629881   -0.964940
     47          6           0        4.197246   -0.503102   -0.360001
     48          6           0        5.171844    0.279342   -0.862419
     49          6           0        5.087604    1.145544   -2.001518
     50          6           0        6.553862    0.306888    0.071252
     51          6           0        7.639098   -0.178569   -0.892779
     52          6           0        9.010035   -0.133043   -0.158648
     53          6           0       10.310484   -0.559304   -0.937875
     54          6           0       10.184761   -1.967090   -1.312255
     55          6           0       11.506679   -0.152916   -0.064341
     56          6           0       12.848893   -0.395055   -0.807203
     57          6           0       14.084574   -0.021650    0.075545
     58          6           0       15.437526   -0.130904   -0.637171
     59          6           0       15.816006   -1.553944   -1.027751
     60          6           0       16.514584    0.465182    0.303285
     61          6           0       17.918328    0.680180   -0.283941
     62          6           0       18.914131    1.186249    0.625285
     63          6           0       20.399166    1.309829    0.130731
     64          6           0       20.424585    2.151552   -1.088591
     65          6           0       21.317132    1.679121    1.239424
     66          1           0       -4.096335    3.667553    1.469159
     67          1           0      -10.382130    3.936298   -0.581663
     68          1           0      -10.263392   -2.505453   -1.400255
     69          1           0       -2.851861   -1.070843    1.940691
     70          1           0       -2.309623    1.626663    1.379367
     71          1           0       -1.976893    0.952649    3.727382
     72          1           0       -3.223838    2.405973    3.389771
     73          1           0       -3.756856    0.744468    3.713133
     74          1           0       -2.069337   -1.558320   -0.355902
     75          1           0       -2.166800    0.013122   -0.666824
     76          1           0       -0.272548    0.568092    1.128767
     77          1           0       -0.302599   -1.016622    1.693455
     78          1           0       -5.145659    6.450586    0.531116
     79          1           0       -6.308078    6.598201    2.057952
     80          1           0       -4.827727    5.409971    2.152591
     81          1           0       -9.741307    5.778022    0.824247
     82          1           0       -9.179159    7.853972   -0.097017
     83          1           0       -7.377714    7.704618   -0.184145
     84          1           0      -12.071191    3.077261   -2.248559
     85          1           0      -13.144589    1.816131   -1.877574
     86          1           0      -12.786807    3.017812   -0.497824
     87          1           0      -12.623035   -1.630117   -1.211339
     88          1           0      -13.308699   -0.243714   -1.798208
     89          1           0      -13.214472   -1.472707   -3.833932
     90          1           0      -11.916957   -0.300622   -4.014890
     91          1           0      -11.375660   -1.864067   -3.645367
     92          1           0       -8.840485   -4.862105   -1.937116
     93          1           0       -8.132615   -5.563678   -0.622599
     94          1           0       -9.747344   -4.556990   -0.549158
     95          1           0       -3.503191   -3.717275   -0.125285
     96          1           0       -1.466737   -4.462853    3.344399
     97          1           0       -2.946330   -5.429819    3.717195
     98          1           0       -1.526972   -6.070574    2.806899
     99          1           0        2.790609   -1.689249   -1.351896
    100          1           0        2.480496    0.092889   -1.768432
    101          1           0        4.347288   -1.159270    0.376516
    102          1           0        4.113352    0.994946   -2.655769
    103          1           0        5.104084    2.216129   -2.021226
    104          1           0        5.820305    0.760395   -2.838900
    105          1           0        6.752320    1.382312    0.501174
    106          1           0        6.484335   -0.100788    0.969463
    107          1           0        7.352560   -1.280752   -1.247157
    108          1           0        7.588058    0.415419   -1.710763
    109          1           0        9.099608    0.998822    0.285356
    110          1           0        8.928045   -0.676644    0.841221
    111          1           0       10.404894   -0.075317   -1.830285
    112          1           0        9.276099   -2.079735   -2.007456
    113          1           0       11.077187   -2.496255   -1.669855
    114          1           0       10.082999   -2.509629   -0.333180
    115          1           0       11.246521    0.865672    0.149814
    116          1           0       11.458355   -0.752295    0.965924
    117          1           0       13.032394   -1.460319   -1.121449
    118          1           0       12.972051    0.224644   -1.883412
    119          1           0       13.985699    0.869191    0.857859
    120          1           0       14.159032   -0.688772    0.980257
    121          1           0       15.292403    0.413980   -1.812133
    122          1           0       15.834696   -2.071291   -0.075944
    123          1           0       15.105821   -1.815984   -1.755323
    124          1           0       16.969698   -1.440914   -1.666354
    125          1           0       16.007984    1.384770    0.722472
    126          1           0       16.279511   -0.186835    1.237861
    127          1           0       18.379708   -0.318832   -0.748093
    128          1           0       17.802986    1.290145   -1.200320
    129          1           0       18.588458    2.236104    1.048425
    130          1           0       19.000643    0.681904    1.633307
    131          1           0       20.811085    0.358384   -0.261168
    132          1           0       20.237494    3.254211   -0.849746
    133          1           0       21.485309    2.153350   -1.323304
    134          1           0       19.834025    1.978630   -2.046594
    135          1           0       21.149950    1.237318    2.300186
    136          1           0       22.356606    1.577942    0.933997
    137          1           0       21.068810    2.651351    1.524401
 ---------------------------------------------------------------------

 SCF Done:  E(RCAM-B3LYP) =  -2932.64486726     A.U. after   18 cycles

 Excitation energies and oscillator strengths:

 Excited State   1:      Singlet-A      2.1246 eV  583.56 nm  f=0.2077  <S**2>=0.000
     240 -> 242       -0.19306
     240 -> 243        0.22037
     241 -> 242        0.62601
     241 -> 243        0.12152
 This state for optimization and/or second-order correction.
 Total Energy, E(TD-HF/TD-KS) =  -2932.56678934
 Copying the excited state density for this state as the 1-particle RhoCI density.

 The electronic state is 1-A.
 Alpha  occ. eigenvalues --  -46.84862 -19.26410 -19.23863 -19.22297 -19.21037
 Alpha  occ. eigenvalues --  -19.19372 -14.42648 -14.40127 -14.39250 -14.39079
 Alpha  occ. eigenvalues --  -10.39351 -10.38920 -10.34733 -10.32607 -10.32075
 Alpha  occ. eigenvalues --  -10.30985 -10.30956 -10.30085 -10.29524 -10.29520
 Alpha  occ. eigenvalues --  -10.29331 -10.29246 -10.28751 -10.28673 -10.28562
 Alpha  occ. eigenvalues --  -10.28342 -10.28170 -10.28128 -10.28106 -10.27942
 Alpha  occ. eigenvalues --  -10.27753 -10.27699 -10.27650 -10.27533 -10.27502
 Alpha  occ. eigenvalues --  -10.27234 -10.27212 -10.27105 -10.27075 -10.26892
 Alpha  occ. eigenvalues --  -10.26846 -10.26685 -10.26376 -10.26364 -10.26266
 Alpha  occ. eigenvalues --  -10.26236 -10.26090 -10.26059 -10.26056 -10.26055
 Alpha  occ. eigenvalues --  -10.26015 -10.25990 -10.25936 -10.25809 -10.25800
 Alpha  occ. eigenvalues --  -10.25672 -10.25624 -10.25441 -10.25169 -10.24700
 Alpha  occ. eigenvalues --  -10.24667 -10.24528 -10.24382 -10.24228 -10.23589
 Alpha  occ. eigenvalues --   -3.13941  -1.88641  -1.88170  -1.88138  -1.19214
 Alpha  occ. eigenvalues --   -1.17299  -1.09909  -1.09426  -1.08154  -1.07618
 Alpha  occ. eigenvalues --   -1.06703  -1.02994  -1.02172  -0.92116  -0.90937
 Alpha  occ. eigenvalues --   -0.90523  -0.90263  -0.90100  -0.89769  -0.89220
 Alpha  occ. eigenvalues --   -0.88735  -0.88228  -0.87593  -0.87305  -0.85829
 Alpha  occ. eigenvalues --   -0.85034  -0.84266  -0.83570  -0.82987  -0.82317
 Alpha  occ. eigenvalues --   -0.81114  -0.80650  -0.80280  -0.80069  -0.78257
 Alpha  occ. eigenvalues --   -0.77805  -0.76906  -0.76299  -0.76084  -0.75483
 Alpha  occ. eigenvalues --   -0.75224  -0.75067  -0.74478  -0.72939  -0.72481
 Alpha  occ. eigenvalues --   -0.71225  -0.70699  -0.70339  -0.69026  -0.68807
 Alpha  occ. eigenvalues --   -0.67745  -0.66990  -0.66794  -0.64800  -0.64584
 Alpha  occ. eigenvalues --   -0.64046  -0.63348  -0.62733  -0.62592  -0.61808
 Alpha  occ. eigenvalues --   -0.61630  -0.60703  -0.60582  -0.60433  -0.59793
 Alpha  occ. eigenvalues --   -0.58983  -0.58425  -0.58019  -0.56989  -0.56057
 Alpha  occ. eigenvalues --   -0.55668  -0.55533  -0.55167  -0.54870  -0.54048
 Alpha  occ. eigenvalues --   -0.53858  -0.53652  -0.53444  -0.53388  -0.53098
 Alpha  occ. eigenvalues --   -0.52787  -0.52525  -0.52040  -0.52008  -0.51551
 Alpha  occ. eigenvalues --   -0.51500  -0.51041  -0.50904  -0.50640  -0.50528
 Alpha  occ. eigenvalues --   -0.50430  -0.50287  -0.50231  -0.49732  -0.49664
 Alpha  occ. eigenvalues --   -0.49231  -0.48951  -0.48762  -0.48522  -0.48381
 Alpha  occ. eigenvalues --   -0.48268  -0.48196  -0.48063  -0.47845  -0.47637
 Alpha  occ. eigenvalues --   -0.47578  -0.47298  -0.46852  -0.46740  -0.46399
 Alpha  occ. eigenvalues --   -0.45921  -0.45677  -0.45521  -0.45472  -0.45163
 Alpha  occ. eigenvalues --   -0.45123  -0.45059  -0.44753  -0.44710  -0.44647
 Alpha  occ. eigenvalues --   -0.44499  -0.43986  -0.43752  -0.43489  -0.43145
 Alpha  occ. eigenvalues --   -0.42741  -0.42651  -0.42516  -0.42302  -0.41942
 Alpha  occ. eigenvalues --   -0.41891  -0.41768  -0.41723  -0.41449  -0.41183
 Alpha  occ. eigenvalues --   -0.41079  -0.40719  -0.40646  -0.40546  -0.40282
 Alpha  occ. eigenvalues --   -0.39856  -0.39796  -0.39487  -0.39424  -0.39183
 Alpha  occ. eigenvalues --   -0.39107  -0.38964  -0.38656  -0.38078  -0.37593
 Alpha  occ. eigenvalues --   -0.37499  -0.37116  -0.36913  -0.36617  -0.36554
 Alpha  occ. eigenvalues --   -0.36317  -0.36020  -0.35406  -0.35149  -0.34861
 Alpha  occ. eigenvalues --   -0.34658  -0.34550  -0.34258  -0.34224  -0.33561
 Alpha  occ. eigenvalues --   -0.33234  -0.32841  -0.32376  -0.30970  -0.30172
 Alpha  occ. eigenvalues --   -0.29569  -0.29518  -0.28427  -0.27725  -0.23132
 Alpha  occ. eigenvalues --   -0.21830
 Alpha virt. eigenvalues --   -0.06941  -0.03010   0.01525   0.03676   0.05200
 Alpha virt. eigenvalues --    0.05657   0.05785   0.06344   0.06714   0.06957
 Alpha virt. eigenvalues --    0.08626   0.10256   0.10993   0.11034   0.11645

 Mulliken charges:
               1
     1  Mg   0.829020
     2  C    0.104893
     3  C   -0.249616
     4  C   -0.191169
     5  C   -0.167590
     6  N   -0.627197
     7  C    0.243618
     8  C   -0.128460
     9  C   -0.151248
    10  C    0.366945
    11  C   -0.319668
    12  C   -0.174497
    13  C   -0.273796
    14  C    0.602899
    15  O   -0.479357
    16  O   -0.483005
    17  N   -0.742755
    18  C    0.314632
    19  C    0.120361
    20  C    0.002909
    21  C    0.338049
    22  C   -0.410743
    23  C   -0.082189
    24  C   -0.250253
    25  N   -0.696228
    26  C    0.310534
    27  C   -0.027035
    28  C    0.045555
    29  C    0.314537
    30  C   -0.360562
    31  C   -0.248520
    32  C   -0.325806
    33  N   -0.698153
    34  C    0.256885
    35  C   -0.061152
    36  C    0.053701
    37  C    0.244173
    38  C   -0.340492
    39  C    0.363146
    40  O   -0.464319
    41  C   -0.339732
    42  C    0.619597
    43  O   -0.412119
    44  O   -0.493216
    45  C   -0.068217
    46  C    0.010786
    47  C   -0.123832
    48  C    0.124579
    49  C   -0.389287
    50  C   -0.209236
    51  C   -0.163339
    52  C   -0.180908
    53  C   -0.055558
    54  C   -0.298688
    55  C   -0.162813
    56  C   -0.172534
    57  C   -0.180770
    58  C   -0.050536
    59  C   -0.259844
    60  C   -0.170357
    61  C   -0.165816
    62  C   -0.157684
    63  C   -0.053527
    64  C   -0.303211
    65  C   -0.317633
    66  H    0.081877
    67  H    0.110999
    68  H    0.101502
    69  H    0.116749
    70  H    0.119015
    71  H    0.114758
    72  H    0.112374
    73  H    0.113006
    74  H    0.129562
    75  H    0.121538
    76  H    0.128608
    77  H    0.146185
    78  H    0.130360
    79  H    0.112976
    80  H    0.090068
    81  H    0.102525
    82  H    0.106468
    83  H    0.108699
    84  H    0.138546
    85  H    0.106572
    86  H    0.097551
    87  H    0.106746
    88  H    0.114024
    89  H    0.098423
    90  H    0.109679
    91  H    0.113199
    92  H    0.131964
    93  H    0.143236
    94  H    0.093518
    95  H    0.174504
    96  H    0.113590
    97  H    0.106500
    98  H    0.122689
    99  H    0.131293
   100  H    0.121010
   101  H    0.095196
   102  H    0.097112
   103  H    0.137481
   104  H    0.111407
   105  H    0.079450
   106  H    0.108524
   107  H    0.084744
   108  H    0.113019
   109  H    0.058182
   110  H    0.086503
   111  H    0.095555
   112  H    0.096250
   113  H    0.099173
   114  H    0.086991
   115  H    0.107348
   116  H    0.072442
   117  H    0.104302
   118  H    0.068755
   119  H    0.077625
   120  H    0.080645
   121  H    0.026161
   122  H    0.102395
   123  H    0.110743
   124  H    0.062673
   125  H    0.091170
   126  H    0.076153
   127  H    0.078257
   128  H    0.106313
   129  H    0.065406
   130  H    0.082767
   131  H    0.085788
   132  H    0.084872
   133  H    0.093477
   134  H    0.108833
   135  H    0.095648
   136  H    0.103440
   137  H    0.110742
 Sum of Mulliken charges =   0.00000

 Dipole moment (field-independent basis, Debye):
    X=              0.7957    Y=              6.6332    Z=             -0.0254  Tot=              6.6808
 Quadrupole moment (field-independent basis, Debye-Ang):
   XX=           -346.7706   YY=           -404.1976   ZZ=           -394.4305
   XY=            -32.1020   XZ=             17.1593   YZ=             -3.4089

 Normal termination of Gaussian 09 at Thu Jun 27 10:40:40 2019.
