 Gaussian 09, Revision D.01,
 Gaussian 09:  ES64L-G09RevD.01 24-Apr-2013

 -------------------------------------
 # td=(NStates=1) CAM-B3LYP/6-31G(d,p)
 -------------------------------------

 --
 TD
 --
 Symbolic Z-matrix:
 Charge =  0 Multiplicity = 1

                         Standard orientation:
 ---------------------------------------------------------------------
 Center     Atomic      Atomic             Coordinates (Angstroms)
 Number     Number       Type             X           Y           Z
 ---------------------------------------------------------------------
      1         12           0       -7.150979    0.590403    0.150371
      2          6           0       -4.949046   -1.953629    0.572441
      3          6           0       -4.777604    2.764266    1.271919
      4          6           0       -9.352016    3.148164   -0.325958
      5          6           0       -9.539650   -1.780076   -0.864368
      6          7           0       -5.145616    0.403088    0.916073
      7          6           0       -4.350507   -0.738964    0.799224
      8          6           0       -2.928174   -0.526311    1.238538
      9          6           0       -3.031567    1.032895    1.700383
     10          6           0       -4.390042    1.428183    1.212716
     11          6           0       -2.876884    1.147070    3.229746
     12          6           0       -1.867966   -0.606789    0.127940
     13          6           0       -0.498883   -0.396160    0.527091
     14          6           0        0.500945   -0.542325   -0.588562
     15          8           0        0.259959   -0.865799   -1.678296
     16          8           0        1.795426   -0.389215   -0.152245
     17          7           0       -7.180193    2.582712    0.418697
     18          6           0       -5.986579    3.333033    0.814707
     19          6           0       -6.329347    4.657436    0.897917
     20          6           0       -7.697520    4.796404    0.461082
     21          6           0       -8.190844    3.457110    0.212581
     22          6           0       -5.462974    5.808197    1.388887
     23          6           0       -8.630470    5.953048    0.457237
     24          6           0       -8.341737    7.215432    0.165127
     25          7           0       -9.087521    0.666259   -0.491796
     26          6           0       -9.824917    1.802455   -0.715725
     27          6           0      -11.267187    1.426063   -1.202242
     28          6           0      -11.242284    0.132157   -1.429797
     29          6           0       -9.885144   -0.366484   -0.860920
     30          6           0      -12.283510    2.406183   -1.517646
     31          6           0      -12.345869   -0.808933   -1.812916
     32          6           0      -12.243589   -0.997818   -3.396505
     33          7           0       -7.251894   -1.400120   -0.170163
     34          6           0       -8.239808   -2.319388   -0.460846
     35          6           0       -7.782073   -3.618179   -0.535679
     36          6           0       -6.455435   -3.583122   -0.078178
     37          6           0       -6.219211   -2.222764    0.111323
     38          6           0       -8.718114   -4.821210   -0.837871
     39          6           0       -5.362099   -4.373492    0.155222
     40          8           0       -5.215730   -5.618026    0.165516
     41          6           0       -4.166701   -3.298530    0.500077
     42          6           0       -3.615312   -3.700790    1.846528
     43          8           0       -3.798521   -3.238089    2.944794
     44          8           0       -2.804230   -4.765860    1.627202
     45          6           0       -2.152552   -5.257435    2.829068
     46          6           0        2.864643   -0.373904   -1.100098
     47          6           0        4.101594   -0.209228   -0.406802
     48          6           0        5.139753    0.566899   -0.891858
     49          6           0        5.157081    1.396096   -2.153369
     50          6           0        6.483746    0.629887   -0.142493
     51          6           0        7.611544   -0.008097   -0.915177
     52          6           0        8.982649   -0.089017   -0.222429
     53          6           0       10.205259   -0.369084   -0.938633
     54          6           0       10.089947   -1.970924   -1.416023
     55          6           0       11.381677   -0.214466   -0.028085
     56          6           0       12.771520   -0.439997   -0.735368
     57          6           0       13.903554   -0.085478    0.107656
     58          6           0       15.218787   -0.145900   -0.626198
     59          6           0       15.528452   -1.589785   -1.162872
     60          6           0       16.347836    0.357369    0.372615
     61          6           0       17.764838    0.450868   -0.149384
     62          6           0       18.814128    1.122093    0.821920
     63          6           0       20.258626    1.200714    0.306635
     64          6           0       20.393516    2.096118   -0.966502
     65          6           0       21.115578    1.608992    1.397183
     66          1           0       -4.046401    3.512803    1.649167
     67          1           0       -9.980753    4.011324   -0.471524
     68          1           0       -9.954725   -2.648826   -1.169946
     69          1           0       -2.462621   -1.363168    2.098328
     70          1           0       -2.216429    1.554516    1.305542
     71          1           0       -1.994790    0.852458    3.795837
     72          1           0       -2.897223    2.177618    3.367912
     73          1           0       -3.738226    0.595553    3.847027
     74          1           0       -2.124189   -1.701609   -0.267517
     75          1           0       -2.044040    0.173219   -0.567846
     76          1           0       -0.343025    0.550920    0.879737
     77          1           0       -0.192219   -1.182266    1.553655
     78          1           0       -4.997532    6.210131    0.423951
     79          1           0       -6.250632    6.693999    1.739537
     80          1           0       -4.685195    5.378188    2.078749
     81          1           0       -9.684632    5.589899    0.648247
     82          1           0       -9.036646    7.987085    0.296406
     83          1           0       -7.332906    7.364303   -0.203927
     84          1           0      -11.979976    3.221769   -2.226606
     85          1           0      -13.229624    1.916029   -1.710409
     86          1           0      -12.468855    2.928100   -0.689744
     87          1           0      -12.309201   -1.765048   -1.450024
     88          1           0      -13.284558   -0.203350   -1.463522
     89          1           0      -13.150369   -1.404502   -3.889528
     90          1           0      -11.823737    0.102620   -4.015853
     91          1           0      -11.373277   -1.554451   -3.481297
     92          1           0       -8.997971   -4.531069   -2.013719
     93          1           0       -8.152819   -5.649876   -1.084816
     94          1           0       -9.754222   -4.815906   -0.360424
     95          1           0       -3.233707   -3.436563   -0.195812
     96          1           0       -1.774943   -4.323606    3.426139
     97          1           0       -2.997301   -5.837379    3.369786
     98          1           0       -1.327920   -5.997857    2.536597
     99          1           0        2.697055   -1.343640   -1.648524
    100          1           0        2.758479    0.524849   -2.001746
    101          1           0        4.262549   -0.951977    0.433124
    102          1           0        4.236393    1.564486   -2.631385
    103          1           0        5.639157    2.272732   -1.758001
    104          1           0        5.786802    0.873013   -2.966405
    105          1           0        6.713205    1.573404    0.273915
    106          1           0        6.340450   -0.139567    0.562013
    107          1           0        7.397937   -1.019029   -1.278545
    108          1           0        7.962128    0.545328   -1.867545
    109          1           0        9.000147    0.997075    0.112871
    110          1           0        9.043411   -0.673792    0.687601
    111          1           0       10.345715    0.147547   -1.907535
    112          1           0        9.039265   -2.104655   -1.810483
    113          1           0       10.877787   -2.405589   -2.115793
    114          1           0       10.190421   -2.609389   -0.511458
    115          1           0       11.560715    0.883614    0.246528
    116          1           0       11.334687   -0.871539    1.078710
    117          1           0       12.776167   -1.503922   -1.176798
    118          1           0       12.978231    0.257963   -1.774590
    119          1           0       13.736657    1.116539    0.494974
    120          1           0       13.802937   -0.658665    0.982154
    121          1           0       15.166250    0.578259   -1.467812
    122          1           0       15.552481   -2.484818   -0.401601
    123          1           0       14.981280   -1.885306   -1.984428
    124          1           0       16.635318   -1.697962   -1.610377
    125          1           0       15.924043    1.345127    0.790926
    126          1           0       16.375766   -0.596454    1.066838
    127          1           0       18.179655   -0.538304   -0.346664
    128          1           0       17.801298    0.912751   -1.156293
    129          1           0       18.351575    2.009420    1.065737
    130          1           0       19.002250    0.633487    1.746283
    131          1           0       20.731333    0.104324   -0.104408
    132          1           0       20.023894    2.986930   -0.822275
    133          1           0       21.361185    2.230599   -1.077086
    134          1           0       20.111876    1.568167   -1.937411
    135          1           0       20.985350    0.964263    2.158767
    136          1           0       22.274032    1.411775    1.221133
    137          1           0       20.695501    2.572308    1.652030
 ---------------------------------------------------------------------

 SCF Done:  E(RCAM-B3LYP) =  -2932.61239743     A.U. after   18 cycles

 Excitation energies and oscillator strengths:

 Excited State   1:      Singlet-A      1.9909 eV  622.76 nm  f=0.2728  <S**2>=0.000
     240 -> 242       -0.12362
     240 -> 243        0.22442
     241 -> 242        0.65131
 This state for optimization and/or second-order correction.
 Total Energy, E(TD-HF/TD-KS) =  -2932.53923388
 Copying the excited state density for this state as the 1-particle RhoCI density.

 The electronic state is 1-A.
 Alpha  occ. eigenvalues --  -46.84517 -19.24739 -19.24664 -19.21147 -19.20090
 Alpha  occ. eigenvalues --  -19.19180 -14.42370 -14.41351 -14.39172 -14.38830
 Alpha  occ. eigenvalues --  -10.38692 -10.37926 -10.34160 -10.32439 -10.31886
 Alpha  occ. eigenvalues --  -10.31788 -10.31219 -10.30871 -10.30415 -10.30349
 Alpha  occ. eigenvalues --  -10.28911 -10.28729 -10.28668 -10.28490 -10.28408
 Alpha  occ. eigenvalues --  -10.28285 -10.28158 -10.28115 -10.28110 -10.27859
 Alpha  occ. eigenvalues --  -10.27791 -10.27771 -10.27648 -10.27618 -10.27609
 Alpha  occ. eigenvalues --  -10.27460 -10.27436 -10.27308 -10.26958 -10.26952
 Alpha  occ. eigenvalues --  -10.26844 -10.26837 -10.26646 -10.26610 -10.26604
 Alpha  occ. eigenvalues --  -10.26561 -10.26553 -10.26482 -10.26344 -10.26234
 Alpha  occ. eigenvalues --  -10.26156 -10.26047 -10.25909 -10.25816 -10.25703
 Alpha  occ. eigenvalues --  -10.25681 -10.25588 -10.25513 -10.25234 -10.24749
 Alpha  occ. eigenvalues --  -10.24681 -10.24359 -10.23809 -10.23703 -10.21916
 Alpha  occ. eigenvalues --   -3.13608  -1.88308  -1.87874  -1.87770  -1.18757
 Alpha  occ. eigenvalues --   -1.17059  -1.10270  -1.08172  -1.07909  -1.05408
 Alpha  occ. eigenvalues --   -1.04361  -1.03499  -1.02082  -0.92621  -0.91802
 Alpha  occ. eigenvalues --   -0.91046  -0.90559  -0.90158  -0.89967  -0.89582
 Alpha  occ. eigenvalues --   -0.88958  -0.88618  -0.87818  -0.86999  -0.86124
 Alpha  occ. eigenvalues --   -0.85264  -0.84573  -0.83708  -0.83470  -0.83024
 Alpha  occ. eigenvalues --   -0.81547  -0.80882  -0.80546  -0.79780  -0.78426
 Alpha  occ. eigenvalues --   -0.78168  -0.77677  -0.77251  -0.76027  -0.75460
 Alpha  occ. eigenvalues --   -0.74727  -0.74517  -0.74194  -0.73514  -0.72692
 Alpha  occ. eigenvalues --   -0.72111  -0.70587  -0.69922  -0.69138  -0.68782
 Alpha  occ. eigenvalues --   -0.66799  -0.66501  -0.65436  -0.64704  -0.63618
 Alpha  occ. eigenvalues --   -0.63188  -0.62538  -0.62143  -0.61652  -0.61439
 Alpha  occ. eigenvalues --   -0.60718  -0.60420  -0.60140  -0.59581  -0.59182
 Alpha  occ. eigenvalues --   -0.58931  -0.58502  -0.57883  -0.56916  -0.56741
 Alpha  occ. eigenvalues --   -0.56154  -0.55858  -0.55553  -0.55261  -0.55101
 Alpha  occ. eigenvalues --   -0.54669  -0.54211  -0.54007  -0.53670  -0.53102
 Alpha  occ. eigenvalues --   -0.52861  -0.52642  -0.52560  -0.52397  -0.52152
 Alpha  occ. eigenvalues --   -0.51628  -0.51135  -0.50912  -0.50750  -0.50615
 Alpha  occ. eigenvalues --   -0.50462  -0.50228  -0.49928  -0.49545  -0.49531
 Alpha  occ. eigenvalues --   -0.49247  -0.49172  -0.49091  -0.48819  -0.48699
 Alpha  occ. eigenvalues --   -0.48292  -0.48044  -0.47567  -0.47541  -0.47516
 Alpha  occ. eigenvalues --   -0.47323  -0.46990  -0.46782  -0.46533  -0.46353
 Alpha  occ. eigenvalues --   -0.46129  -0.45914  -0.45659  -0.45489  -0.45342
 Alpha  occ. eigenvalues --   -0.44791  -0.44554  -0.44369  -0.44289  -0.44160
 Alpha  occ. eigenvalues --   -0.43924  -0.43469  -0.43420  -0.43334  -0.42692
 Alpha  occ. eigenvalues --   -0.42666  -0.42611  -0.42481  -0.42457  -0.42138
 Alpha  occ. eigenvalues --   -0.41795  -0.41627  -0.41528  -0.41345  -0.41183
 Alpha  occ. eigenvalues --   -0.40883  -0.40835  -0.40526  -0.40188  -0.40081
 Alpha  occ. eigenvalues --   -0.39877  -0.39795  -0.39500  -0.39424  -0.39347
 Alpha  occ. eigenvalues --   -0.39054  -0.38854  -0.38515  -0.38015  -0.37708
 Alpha  occ. eigenvalues --   -0.37556  -0.37343  -0.37082  -0.36927  -0.36704
 Alpha  occ. eigenvalues --   -0.36362  -0.35677  -0.35310  -0.35264  -0.34965
 Alpha  occ. eigenvalues --   -0.34754  -0.34726  -0.34227  -0.34065  -0.33905
 Alpha  occ. eigenvalues --   -0.33710  -0.33345  -0.32468  -0.30619  -0.30050
 Alpha  occ. eigenvalues --   -0.29268  -0.29230  -0.29012  -0.27314  -0.23288
 Alpha  occ. eigenvalues --   -0.21596
 Alpha virt. eigenvalues --   -0.07385  -0.03178   0.00711   0.04155   0.05039
 Alpha virt. eigenvalues --    0.05553   0.06047   0.06366   0.06745   0.07591
 Alpha virt. eigenvalues --    0.08328   0.09969   0.10559   0.10928   0.11099

 Mulliken charges:
               1
     1  Mg   0.818038
     2  C    0.070390
     3  C   -0.204256
     4  C   -0.186198
     5  C   -0.116337
     6  N   -0.615780
     7  C    0.290834
     8  C   -0.157748
     9  C   -0.164122
    10  C    0.377318
    11  C   -0.303313
    12  C   -0.147204
    13  C   -0.244651
    14  C    0.603674
    15  O   -0.426454
    16  O   -0.502954
    17  N   -0.750332
    18  C    0.308431
    19  C    0.015375
    20  C   -0.019240
    21  C    0.371424
    22  C   -0.360609
    23  C   -0.074521
    24  C   -0.251185
    25  N   -0.635335
    26  C    0.266594
    27  C    0.023750
    28  C    0.050619
    29  C    0.258063
    30  C   -0.376576
    31  C   -0.229899
    32  C   -0.301653
    33  N   -0.706106
    34  C    0.204104
    35  C    0.014030
    36  C    0.095114
    37  C    0.284433
    38  C   -0.355520
    39  C    0.311219
    40  O   -0.490342
    41  C   -0.363147
    42  C    0.637192
    43  O   -0.480237
    44  O   -0.458023
    45  C   -0.079851
    46  C    0.035369
    47  C   -0.118875
    48  C    0.081847
    49  C   -0.341554
    50  C   -0.223286
    51  C   -0.188284
    52  C   -0.155184
    53  C   -0.051831
    54  C   -0.334142
    55  C   -0.152474
    56  C   -0.168535
    57  C   -0.133231
    58  C   -0.060768
    59  C   -0.320841
    60  C   -0.159283
    61  C   -0.186526
    62  C   -0.167853
    63  C   -0.060545
    64  C   -0.298981
    65  C   -0.294909
    66  H    0.080564
    67  H    0.080341
    68  H    0.064781
    69  H    0.103987
    70  H    0.104049
    71  H    0.116545
    72  H    0.104908
    73  H    0.113655
    74  H    0.099519
    75  H    0.112658
    76  H    0.138799
    77  H    0.090976
    78  H    0.126313
    79  H    0.115630
    80  H    0.116580
    81  H    0.096794
    82  H    0.112485
    83  H    0.108334
    84  H    0.125723
    85  H    0.113025
    86  H    0.133660
    87  H    0.125385
    88  H    0.093551
    89  H    0.111528
    90  H    0.064061
    91  H    0.131300
    92  H    0.085466
    93  H    0.154847
    94  H    0.139938
    95  H    0.162427
    96  H    0.123111
    97  H    0.129458
    98  H    0.120004
    99  H    0.122570
   100  H    0.071951
   101  H    0.096321
   102  H    0.114238
   103  H    0.118057
   104  H    0.124454
   105  H    0.112391
   106  H    0.115985
   107  H    0.098602
   108  H    0.077577
   109  H    0.075314
   110  H    0.089443
   111  H    0.094883
   112  H    0.095740
   113  H    0.099249
   114  H    0.099114
   115  H    0.089470
   116  H    0.062262
   117  H    0.094137
   118  H    0.047620
   119  H    0.046576
   120  H    0.101364
   121  H    0.086919
   122  H    0.091958
   123  H    0.119659
   124  H    0.081057
   125  H    0.080368
   126  H    0.081016
   127  H    0.096864
   128  H    0.089042
   129  H    0.095740
   130  H    0.089890
   131  H    0.037079
   132  H    0.103702
   133  H    0.106694
   134  H    0.092510
   135  H    0.115172
   136  H    0.084108
   137  H    0.101385
 Sum of Mulliken charges =   0.00000

 Dipole moment (field-independent basis, Debye):
    X=              0.3260    Y=              6.1410    Z=             -0.3205  Tot=              6.1580
 Quadrupole moment (field-independent basis, Debye-Ang):
   XX=           -328.1023   YY=           -396.1140   ZZ=           -402.8735
   XY=            -32.5177   XZ=             14.1432   YZ=              0.3347

 Normal termination of Gaussian 09 at Sun Jun 30 07:10:06 2019.
