 Gaussian 09, Revision D.01,
 Gaussian 09:  ES64L-G09RevD.01 24-Apr-2013

 -------------------------------------
 # td=(NStates=1) CAM-B3LYP/6-31G(d,p)
 -------------------------------------

 --
 TD
 --
 Symbolic Z-matrix:
 Charge =  0 Multiplicity = 1

                         Standard orientation:
 ---------------------------------------------------------------------
 Center     Atomic      Atomic             Coordinates (Angstroms)
 Number     Number       Type             X           Y           Z
 ---------------------------------------------------------------------
      1         12           0       -7.151324    0.654447    0.163291
      2          6           0       -4.863372   -1.933017    0.466652
      3          6           0       -4.738270    2.893629    1.234166
      4          6           0       -9.519416    3.072704   -0.300980
      5          6           0       -9.445075   -1.788445   -0.919104
      6          7           0       -5.136821    0.386445    0.775502
      7          6           0       -4.339000   -0.703145    0.866346
      8          6           0       -2.945857   -0.364296    1.301456
      9          6           0       -3.086178    1.159538    1.696276
     10          6           0       -4.361787    1.515245    1.096585
     11          6           0       -2.837484    1.447137    3.185504
     12          6           0       -1.938431   -0.685077    0.311128
     13          6           0       -0.412122   -0.438957    0.683707
     14          6           0        0.521256   -0.595561   -0.495901
     15          8           0        0.265145   -0.912955   -1.688450
     16          8           0        1.816981   -0.414195   -0.204372
     17          7           0       -7.174689    2.554352    0.394334
     18          6           0       -6.131364    3.324511    0.860234
     19          6           0       -6.489709    4.650910    0.895237
     20          6           0       -7.833055    4.745775    0.422932
     21          6           0       -8.229236    3.405024    0.143905
     22          6           0       -5.745489    5.904592    1.389820
     23          6           0       -8.717296    5.915537    0.325402
     24          6           0       -8.250072    7.170765    0.116485
     25          7           0       -9.166472    0.673711   -0.642864
     26          6           0       -9.953246    1.857594   -0.630861
     27          6           0      -11.247049    1.425464   -1.143205
     28          6           0      -11.253751   -0.002673   -1.303412
     29          6           0       -9.951470   -0.482679   -0.908287
     30          6           0      -12.435607    2.271298   -1.340050
     31          6           0      -12.442732   -0.853652   -1.759979
     32          6           0      -12.199552   -1.184246   -3.299954
     33          7           0       -7.141176   -1.336025   -0.201294
     34          6           0       -8.245420   -2.241183   -0.525043
     35          6           0       -7.768435   -3.668714   -0.379081
     36          6           0       -6.477683   -3.555738    0.003147
     37          6           0       -6.160948   -2.187779    0.125826
     38          6           0       -8.601050   -4.895119   -0.717963
     39          6           0       -5.193653   -4.379795    0.212176
     40          8           0       -5.024728   -5.614326    0.185564
     41          6           0       -4.097381   -3.342925    0.528489
     42          6           0       -3.432837   -3.697536    1.861430
     43          8           0       -3.641827   -3.133115    2.822187
     44          8           0       -2.576730   -4.724404    1.569148
     45          6           0       -1.990210   -5.191118    2.802161
     46          6           0        2.830063   -0.558903   -1.182687
     47          6           0        4.137227   -0.274557   -0.645760
     48          6           0        5.118516    0.520182   -1.065048
     49          6           0        5.011067    1.416806   -2.231208
     50          6           0        6.415167    0.631193   -0.268779
     51          6           0        7.566559    0.002672   -0.958223
     52          6           0        8.807954    0.019488   -0.054895
     53          6           0       10.092242   -0.482574   -0.889710
     54          6           0       10.071169   -1.974839   -1.288304
     55          6           0       11.345812   -0.250183   -0.005688
     56          6           0       12.733119   -0.421776   -0.745672
     57          6           0       13.908722   -0.024964    0.053110
     58          6           0       15.284359   -0.142182   -0.618145
     59          6           0       15.639678   -1.690683   -0.997719
     60          6           0       16.453915    0.328991    0.398156
     61          6           0       17.870782    0.560619   -0.192492
     62          6           0       18.907468    1.008697    0.841019
     63          6           0       20.360630    1.269337    0.195765
     64          6           0       20.345003    2.212928   -0.983396
     65          6           0       21.257030    1.674662    1.425496
     66          1           0       -4.135793    3.593016    1.483936
     67          1           0      -10.432638    3.811704   -0.548142
     68          1           0      -10.216224   -2.504116   -1.239274
     69          1           0       -2.764551   -0.930580    2.430302
     70          1           0       -2.359331    1.676931    0.934778
     71          1           0       -2.000433    0.888614    3.651121
     72          1           0       -2.785688    2.580636    3.358644
     73          1           0       -3.633615    0.953278    3.930297
     74          1           0       -2.183318   -1.912812   -0.024935
     75          1           0       -1.888387   -0.098651   -0.818171
     76          1           0       -0.131490    0.487826    0.811512
     77          1           0       -0.258508   -1.071628    1.616596
     78          1           0       -5.135681    6.221151    0.385818
     79          1           0       -6.295729    6.827734    1.509284
     80          1           0       -4.982792    5.368607    2.128922
     81          1           0       -9.738427    5.710161    0.427435
     82          1           0       -8.913845    8.136663   -0.043739
     83          1           0       -7.293115    7.216809   -0.194767
     84          1           0      -12.165851    2.828469   -2.404717
     85          1           0      -13.327240    1.621013   -1.518054
     86          1           0      -12.569514    2.997760   -0.485401
     87          1           0      -12.379322   -1.750778   -1.275166
     88          1           0      -13.377862   -0.256693   -1.670811
     89          1           0      -13.132377   -1.806374   -3.683601
     90          1           0      -12.234311   -0.367122   -3.881263
     91          1           0      -11.210405   -1.667991   -3.288106
     92          1           0       -9.237896   -4.831629   -1.540843
     93          1           0       -7.798621   -5.753243   -0.554127
     94          1           0       -9.431159   -5.012763   -0.015969
     95          1           0       -3.385697   -3.655286   -0.444514
     96          1           0       -1.538344   -4.481410    3.435425
     97          1           0       -2.763974   -5.735981    3.247839
     98          1           0       -1.290624   -6.041482    2.590803
     99          1           0        2.483270   -1.616201   -1.626878
    100          1           0        2.476877    0.092561   -2.047617
    101          1           0        4.425649   -0.861888    0.325521
    102          1           0        3.984952    1.536765   -2.392976
    103          1           0        5.499391    2.387928   -2.027266
    104          1           0        5.460994    1.162667   -3.140433
    105          1           0        6.673447    1.613601   -0.170364
    106          1           0        6.307103    0.226772    0.656423
    107          1           0        7.447788   -1.002622   -1.187639
    108          1           0        7.910402    0.390500   -1.970906
    109          1           0        9.072936    1.124933    0.079650
    110          1           0        8.751085   -0.642478    0.674627
    111          1           0       10.201422    0.049549   -1.847575
    112          1           0        9.266109   -2.064399   -2.155418
    113          1           0       11.074998   -2.331298   -1.653969
    114          1           0        9.609910   -2.677796   -0.483840
    115          1           0       11.256283    0.854538    0.431832
    116          1           0       11.459185   -1.031308    0.758515
    117          1           0       12.561526   -1.529177   -0.831426
    118          1           0       12.657418    0.024732   -1.928934
    119          1           0       13.877622    1.067552    0.382657
    120          1           0       13.762289   -0.627176    0.944484
    121          1           0       15.262815    0.459297   -1.394284
    122          1           0       15.525897   -2.217307    0.064467
    123          1           0       15.010531   -2.207561   -1.660127
    124          1           0       16.648154   -1.967972   -1.413630
    125          1           0       16.128186    1.342802    0.981977
    126          1           0       16.423828   -0.453911    1.166340
    127          1           0       18.038135   -0.424742   -0.873372
    128          1           0       17.638758    1.460100   -1.025121
    129          1           0       18.516829    1.945174    1.291358
    130          1           0       18.874781    0.337939    1.629466
    131          1           0       20.596076    0.147662   -0.084123
    132          1           0       19.768814    3.239237   -0.939152
    133          1           0       21.360470    2.252779   -1.118188
    134          1           0       20.032503    1.741247   -1.922643
    135          1           0       20.992725    0.976276    2.135103
    136          1           0       22.260968    1.737884    1.200237
    137          1           0       21.070876    2.672826    1.603862
 ---------------------------------------------------------------------

 SCF Done:  E(RCAM-B3LYP) =  -2932.60211641     A.U. after   18 cycles

 Excitation energies and oscillator strengths:

 Excited State   1:      Singlet-A      2.0616 eV  601.40 nm  f=0.2237  <S**2>=0.000
     240 -> 242       -0.10852
     240 -> 243       -0.24133
     241 -> 242        0.64266
 This state for optimization and/or second-order correction.
 Total Energy, E(TD-HF/TD-KS) =  -2932.52635394
 Copying the excited state density for this state as the 1-particle RhoCI density.

 The electronic state is 1-A.
 Alpha  occ. eigenvalues --  -46.83181 -19.26827 -19.25662 -19.23192 -19.21540
 Alpha  occ. eigenvalues --  -19.20226 -14.41890 -14.39651 -14.39031 -14.38293
 Alpha  occ. eigenvalues --  -10.39826 -10.39699 -10.36670 -10.32509 -10.31488
 Alpha  occ. eigenvalues --  -10.30720 -10.30608 -10.30084 -10.30031 -10.29861
 Alpha  occ. eigenvalues --  -10.29845 -10.29196 -10.29167 -10.29128 -10.29074
 Alpha  occ. eigenvalues --  -10.28527 -10.28324 -10.28237 -10.28044 -10.27989
 Alpha  occ. eigenvalues --  -10.27658 -10.27480 -10.27460 -10.27428 -10.27268
 Alpha  occ. eigenvalues --  -10.27189 -10.27091 -10.27063 -10.26774 -10.26595
 Alpha  occ. eigenvalues --  -10.26534 -10.26533 -10.26510 -10.26412 -10.26282
 Alpha  occ. eigenvalues --  -10.26258 -10.26166 -10.26013 -10.25994 -10.25972
 Alpha  occ. eigenvalues --  -10.25910 -10.25811 -10.25602 -10.25597 -10.25459
 Alpha  occ. eigenvalues --  -10.25352 -10.25299 -10.25142 -10.25126 -10.24808
 Alpha  occ. eigenvalues --  -10.24631 -10.24522 -10.24515 -10.24328 -10.22632
 Alpha  occ. eigenvalues --   -3.12374  -1.87065  -1.86608  -1.86579  -1.21184
 Alpha  occ. eigenvalues --   -1.18241  -1.13186  -1.10295  -1.06635  -1.04375
 Alpha  occ. eigenvalues --   -1.02923  -1.02664  -0.99593  -0.92283  -0.91934
 Alpha  occ. eigenvalues --   -0.90350  -0.89941  -0.88964  -0.88770  -0.88266
 Alpha  occ. eigenvalues --   -0.88050  -0.87921  -0.87471  -0.86994  -0.86413
 Alpha  occ. eigenvalues --   -0.85267  -0.84401  -0.83487  -0.82939  -0.82156
 Alpha  occ. eigenvalues --   -0.81800  -0.81369  -0.80201  -0.79824  -0.79219
 Alpha  occ. eigenvalues --   -0.77483  -0.77216  -0.77009  -0.76838  -0.75505
 Alpha  occ. eigenvalues --   -0.74501  -0.74316  -0.74109  -0.73750  -0.72732
 Alpha  occ. eigenvalues --   -0.71957  -0.70178  -0.69576  -0.69283  -0.68109
 Alpha  occ. eigenvalues --   -0.66812  -0.66666  -0.64800  -0.64453  -0.64223
 Alpha  occ. eigenvalues --   -0.63835  -0.63158  -0.62333  -0.62196  -0.62020
 Alpha  occ. eigenvalues --   -0.61611  -0.60752  -0.60128  -0.59861  -0.59745
 Alpha  occ. eigenvalues --   -0.58718  -0.58516  -0.57684  -0.57354  -0.56957
 Alpha  occ. eigenvalues --   -0.56503  -0.56235  -0.56004  -0.55559  -0.54826
 Alpha  occ. eigenvalues --   -0.54571  -0.54222  -0.54019  -0.53542  -0.53229
 Alpha  occ. eigenvalues --   -0.52659  -0.52420  -0.52219  -0.51759  -0.51698
 Alpha  occ. eigenvalues --   -0.51479  -0.51357  -0.51068  -0.50721  -0.50349
 Alpha  occ. eigenvalues --   -0.50206  -0.50087  -0.49734  -0.49549  -0.49473
 Alpha  occ. eigenvalues --   -0.49180  -0.49058  -0.48850  -0.48685  -0.48511
 Alpha  occ. eigenvalues --   -0.48381  -0.48201  -0.47958  -0.47819  -0.47789
 Alpha  occ. eigenvalues --   -0.47509  -0.46797  -0.46720  -0.46398  -0.46388
 Alpha  occ. eigenvalues --   -0.45999  -0.45872  -0.45357  -0.45269  -0.44993
 Alpha  occ. eigenvalues --   -0.44698  -0.44517  -0.44417  -0.44375  -0.44198
 Alpha  occ. eigenvalues --   -0.44109  -0.43757  -0.43446  -0.43202  -0.43112
 Alpha  occ. eigenvalues --   -0.43000  -0.42728  -0.42622  -0.42410  -0.42232
 Alpha  occ. eigenvalues --   -0.41830  -0.41615  -0.41384  -0.41205  -0.41087
 Alpha  occ. eigenvalues --   -0.40863  -0.40698  -0.40423  -0.40248  -0.39825
 Alpha  occ. eigenvalues --   -0.39733  -0.39654  -0.39587  -0.39348  -0.39297
 Alpha  occ. eigenvalues --   -0.38622  -0.38366  -0.38093  -0.38085  -0.37841
 Alpha  occ. eigenvalues --   -0.37635  -0.37351  -0.37120  -0.37007  -0.36708
 Alpha  occ. eigenvalues --   -0.36099  -0.35836  -0.35784  -0.35555  -0.35391
 Alpha  occ. eigenvalues --   -0.35198  -0.34882  -0.34572  -0.34209  -0.33201
 Alpha  occ. eigenvalues --   -0.32862  -0.32568  -0.31980  -0.31293  -0.30709
 Alpha  occ. eigenvalues --   -0.30182  -0.29989  -0.26528  -0.25844  -0.23231
 Alpha  occ. eigenvalues --   -0.21263
 Alpha virt. eigenvalues --   -0.06493  -0.03250   0.01181   0.04273   0.05466
 Alpha virt. eigenvalues --    0.05607   0.05726   0.06364   0.07004   0.07552
 Alpha virt. eigenvalues --    0.08169   0.10504   0.10719   0.11562   0.11732

 Mulliken charges:
               1
     1  Mg   0.820424
     2  C   -0.005900
     3  C   -0.130990
     4  C   -0.157760
     5  C   -0.201777
     6  N   -0.632717
     7  C    0.340531
     8  C   -0.159811
     9  C   -0.130488
    10  C    0.312539
    11  C   -0.307492
    12  C   -0.172738
    13  C   -0.233444
    14  C    0.577563
    15  O   -0.506168
    16  O   -0.466919
    17  N   -0.768965
    18  C    0.303005
    19  C   -0.008753
    20  C   -0.012321
    21  C    0.295037
    22  C   -0.353282
    23  C   -0.045159
    24  C   -0.267507
    25  N   -0.697028
    26  C    0.318296
    27  C    0.004043
    28  C    0.002403
    29  C    0.285120
    30  C   -0.367514
    31  C   -0.231621
    32  C   -0.301582
    33  N   -0.700480
    34  C    0.266193
    35  C    0.022697
    36  C    0.007590
    37  C    0.349911
    38  C   -0.377256
    39  C    0.381728
    40  O   -0.466979
    41  C   -0.322144
    42  C    0.651192
    43  O   -0.407964
    44  O   -0.460896
    45  C   -0.106674
    46  C    0.009398
    47  C   -0.125990
    48  C    0.123154
    49  C   -0.370473
    50  C   -0.207883
    51  C   -0.188558
    52  C   -0.161626
    53  C   -0.069317
    54  C   -0.319775
    55  C   -0.175676
    56  C   -0.172619
    57  C   -0.152048
    58  C   -0.052930
    59  C   -0.320283
    60  C   -0.168538
    61  C   -0.159146
    62  C   -0.173434
    63  C   -0.071773
    64  C   -0.308475
    65  C   -0.305688
    66  H    0.057958
    67  H    0.104874
    68  H    0.083334
    69  H    0.112482
    70  H    0.105168
    71  H    0.113567
    72  H    0.108935
    73  H    0.107967
    74  H    0.092209
    75  H    0.109557
    76  H    0.149533
    77  H    0.136594
    78  H    0.094341
    79  H    0.138999
    80  H    0.099431
    81  H    0.091399
    82  H    0.096761
    83  H    0.106948
    84  H    0.102670
    85  H    0.110976
    86  H    0.118761
    87  H    0.113884
    88  H    0.098360
    89  H    0.079207
    90  H    0.125963
    91  H    0.109369
    92  H    0.137517
    93  H    0.148614
    94  H    0.130659
    95  H    0.162475
    96  H    0.135595
    97  H    0.137887
    98  H    0.121315
    99  H    0.119294
   100  H    0.118334
   101  H    0.078038
   102  H    0.119602
   103  H    0.107066
   104  H    0.132826
   105  H    0.107015
   106  H    0.104381
   107  H    0.106078
   108  H    0.084318
   109  H    0.090939
   110  H    0.106109
   111  H    0.089900
   112  H    0.084072
   113  H    0.113311
   114  H    0.091309
   115  H    0.064650
   116  H    0.092771
   117  H    0.092614
   118  H    0.047228
   119  H    0.087766
   120  H    0.088781
   121  H    0.096375
   122  H    0.080111
   123  H    0.110781
   124  H    0.098367
   125  H    0.056099
   126  H    0.087145
   127  H    0.073735
   128  H    0.059919
   129  H    0.088019
   130  H    0.098818
   131  H    0.076951
   132  H    0.096763
   133  H    0.112354
   134  H    0.109965
   135  H    0.110571
   136  H    0.099916
   137  H    0.110138
 Sum of Mulliken charges =   0.00000

 Dipole moment (field-independent basis, Debye):
    X=              2.0052    Y=              1.9609    Z=              1.7617  Tot=              3.3120
 Quadrupole moment (field-independent basis, Debye-Ang):
   XX=           -341.2128   YY=           -395.2881   ZZ=           -397.6041
   XY=             -3.7786   XZ=              4.8919   YZ=             -9.9920

 Normal termination of Gaussian 09 at Sun Jun 30 09:09:56 2019.
