 Gaussian 09, Revision D.01,
 Gaussian 09:  ES64L-G09RevD.01 24-Apr-2013

 -------------------------------------
 # td=(NStates=1) CAM-B3LYP/6-31G(d,p)
 -------------------------------------

 --
 TD
 --
 Symbolic Z-matrix:
 Charge =  0 Multiplicity = 1

                         Standard orientation:
 ---------------------------------------------------------------------
 Center     Atomic      Atomic             Coordinates (Angstroms)
 Number     Number       Type             X           Y           Z
 ---------------------------------------------------------------------
      1         12           0       -7.160061    0.605881    0.042352
      2          6           0       -4.903534   -1.923459    0.551826
      3          6           0       -4.808504    2.810812    1.166968
      4          6           0       -9.394593    3.139104   -0.419608
      5          6           0       -9.559819   -1.722935   -0.941371
      6          7           0       -5.112733    0.391091    0.765049
      7          6           0       -4.324851   -0.663585    0.903371
      8          6           0       -2.903713   -0.371578    1.324700
      9          6           0       -3.096879    1.139690    1.763828
     10          6           0       -4.451802    1.502197    1.186572
     11          6           0       -2.995844    1.303999    3.324839
     12          6           0       -1.861656   -0.636403    0.233325
     13          6           0       -0.521405   -0.450473    0.666915
     14          6           0        0.568360   -0.677335   -0.413930
     15          8           0        0.227092   -0.898001   -1.572130
     16          8           0        1.812473   -0.519709    0.057393
     17          7           0       -7.105272    2.561601    0.375054
     18          6           0       -6.127661    3.358305    0.783423
     19          6           0       -6.428063    4.800042    0.885973
     20          6           0       -7.802118    4.837421    0.488868
     21          6           0       -8.182516    3.490679    0.051637
     22          6           0       -5.554572    5.885153    1.295879
     23          6           0       -8.673353    5.994700    0.322513
     24          6           0       -8.312174    7.182741   -0.037940
     25          7           0       -9.136728    0.654650   -0.516100
     26          6           0       -9.864305    1.860220   -0.635202
     27          6           0      -11.206952    1.451527   -1.165075
     28          6           0      -11.279266    0.142537   -1.215035
     29          6           0       -9.947676   -0.358898   -0.884935
     30          6           0      -12.383221    2.447545   -1.356280
     31          6           0      -12.427639   -0.809977   -1.771007
     32          6           0      -12.242408   -1.067440   -3.249311
     33          7           0       -7.229334   -1.346294   -0.201497
     34          6           0       -8.274123   -2.277084   -0.533828
     35          6           0       -7.742237   -3.620761   -0.609764
     36          6           0       -6.463212   -3.579033   -0.217270
     37          6           0       -6.229410   -2.141431    0.052914
     38          6           0       -8.556841   -4.971192   -1.014841
     39          6           0       -5.292356   -4.400038    0.098554
     40          8           0       -5.184073   -5.638399    0.039789
     41          6           0       -4.258658   -3.350602    0.497095
     42          6           0       -3.584827   -3.624086    1.816693
     43          8           0       -3.761322   -3.131454    2.839457
     44          8           0       -2.779293   -4.807955    1.619974
     45          6           0       -2.325130   -5.339166    2.843342
     46          6           0        2.765299   -0.705332   -1.034028
     47          6           0        4.122990   -0.369843   -0.339910
     48          6           0        5.096653    0.379919   -0.873880
     49          6           0        5.077501    1.309259   -2.050199
     50          6           0        6.419603    0.571072   -0.078614
     51          6           0        7.601818   -0.021909   -0.863964
     52          6           0        8.959592   -0.033385   -0.125133
     53          6           0       10.243680   -0.456172   -0.888076
     54          6           0       10.096264   -1.892712   -1.277428
     55          6           0       11.498561   -0.334583    0.067540
     56          6           0       12.788793   -0.445781   -0.703363
     57          6           0       14.022740   -0.193433    0.146204
     58          6           0       15.411450   -0.183537   -0.488162
     59          6           0       15.816210   -1.646446   -0.848544
     60          6           0       16.342157    0.524675    0.386017
     61          6           0       17.871373    0.413531   -0.223522
     62          6           0       18.866696    1.176069    0.607364
     63          6           0       20.295148    1.253832    0.103176
     64          6           0       20.470673    2.080583   -1.138905
     65          6           0       21.309342    1.843370    1.076019
     66          1           0       -4.206875    3.581657    1.419581
     67          1           0      -10.177306    3.921229   -0.540728
     68          1           0      -10.354532   -2.524185   -1.480047
     69          1           0       -2.781700   -1.153011    2.159005
     70          1           0       -2.321597    1.611387    1.319229
     71          1           0       -2.028375    1.057706    3.727166
     72          1           0       -3.215118    2.383732    3.508746
     73          1           0       -3.841514    0.786455    3.767570
     74          1           0       -2.062038   -1.652130   -0.096866
     75          1           0       -2.113662    0.072620   -0.554288
     76          1           0       -0.246884    0.598889    0.978214
     77          1           0       -0.282076   -1.020227    1.568414
     78          1           0       -5.055450    6.445263    0.306610
     79          1           0       -5.999141    6.664828    1.812891
     80          1           0       -4.921234    5.528852    1.971872
     81          1           0       -9.739565    5.676827    0.574220
     82          1           0       -9.080949    7.914357   -0.090165
     83          1           0       -7.339642    7.299447   -0.315976
     84          1           0      -12.030633    2.927073   -2.194048
     85          1           0      -13.391733    2.087118   -1.576934
     86          1           0      -12.684344    3.085388   -0.540340
     87          1           0      -12.357907   -1.954819   -1.295556
     88          1           0      -13.412446   -0.465650   -1.763972
     89          1           0      -13.176083   -1.656703   -3.610065
     90          1           0      -12.093384   -0.095773   -3.902172
     91          1           0      -11.331258   -1.788327   -3.376300
     92          1           0       -9.114305   -4.768365   -2.086105
     93          1           0       -7.693528   -5.702547   -0.952477
     94          1           0       -9.371540   -5.075961   -0.121952
     95          1           0       -3.584269   -3.340115   -0.234094
     96          1           0       -2.101349   -4.597444    3.593492
     97          1           0       -3.083643   -6.186981    3.158442
     98          1           0       -1.471025   -5.971801    2.492411
     99          1           0        2.661354   -1.725970   -1.565410
    100          1           0        2.636535    0.032084   -1.784303
    101          1           0        4.440623   -0.812045    0.650906
    102          1           0        4.031041    1.235688   -2.396646
    103          1           0        5.326830    2.396501   -1.784659
    104          1           0        5.760964    1.036318   -2.927378
    105          1           0        6.520378    1.649258    0.032443
    106          1           0        6.507877   -0.020616    0.722032
    107          1           0        7.537893   -1.090785   -1.027845
    108          1           0        7.649801    0.614552   -1.720144
    109          1           0        9.246979    0.991532    0.414745
    110          1           0        9.029517   -0.713865    0.911754
    111          1           0       10.310085   -0.015564   -1.734726
    112          1           0        9.281030   -2.169774   -1.940067
    113          1           0       10.966653   -2.242676   -1.878077
    114          1           0        9.723830   -2.699064   -0.559051
    115          1           0       11.360904    0.724154    0.464490
    116          1           0       11.535029   -1.132350    0.902290
    117          1           0       12.928362   -1.448862   -0.997316
    118          1           0       12.913116    0.184599   -1.654122
    119          1           0       13.975151    0.812980    0.783156
    120          1           0       14.151436   -1.055087    0.913117
    121          1           0       15.240809    0.500924   -1.352683
    122          1           0       16.023182   -2.219353   -0.151305
    123          1           0       15.074601   -2.091204   -1.526210
    124          1           0       16.816495   -1.563490   -1.575182
    125          1           0       16.150543    1.605691    0.489411
    126          1           0       16.497148    0.312149    1.505839
    127          1           0       18.125397   -0.576189   -0.375553
    128          1           0       17.738104    0.891343   -1.294413
    129          1           0       18.354324    2.163025    0.924292
    130          1           0       18.748027    0.757983    1.663599
    131          1           0       20.627149    0.200728   -0.272251
    132          1           0       19.928178    3.118772   -1.016102
    133          1           0       21.441297    2.541272   -1.599693
    134          1           0       19.951245    1.570258   -1.993835
    135          1           0       21.273126    1.257973    2.002276
    136          1           0       22.373997    1.526876    0.796527
    137          1           0       21.314771    2.847451    1.504109
 ---------------------------------------------------------------------

 SCF Done:  E(RCAM-B3LYP) =  -2932.69429846     A.U. after   17 cycles

 Excitation energies and oscillator strengths:

 Excited State   1:      Singlet-A      2.0137 eV  615.71 nm  f=0.2924  <S**2>=0.000
     240 -> 243       -0.24116
     241 -> 242        0.65649
 This state for optimization and/or second-order correction.
 Total Energy, E(TD-HF/TD-KS) =  -2932.62029674
 Copying the excited state density for this state as the 1-particle RhoCI density.

 The electronic state is 1-A.
 Alpha  occ. eigenvalues --  -46.84173 -19.27842 -19.24259 -19.23156 -19.21095
 Alpha  occ. eigenvalues --  -19.21077 -14.41363 -14.40095 -14.39807 -14.39715
 Alpha  occ. eigenvalues --  -10.39542 -10.39292 -10.35918 -10.33197 -10.30995
 Alpha  occ. eigenvalues --  -10.30384 -10.30298 -10.30120 -10.30075 -10.29593
 Alpha  occ. eigenvalues --  -10.29318 -10.29293 -10.29058 -10.29043 -10.29008
 Alpha  occ. eigenvalues --  -10.28783 -10.27749 -10.27591 -10.27560 -10.27483
 Alpha  occ. eigenvalues --  -10.27452 -10.27314 -10.27274 -10.27268 -10.27183
 Alpha  occ. eigenvalues --  -10.27160 -10.27146 -10.26965 -10.26875 -10.26822
 Alpha  occ. eigenvalues --  -10.26673 -10.26563 -10.26355 -10.26346 -10.26122
 Alpha  occ. eigenvalues --  -10.26107 -10.25971 -10.25803 -10.25778 -10.25694
 Alpha  occ. eigenvalues --  -10.25632 -10.25601 -10.25496 -10.25362 -10.25215
 Alpha  occ. eigenvalues --  -10.25125 -10.25077 -10.25038 -10.25017 -10.24938
 Alpha  occ. eigenvalues --  -10.24832 -10.24739 -10.24596 -10.24434 -10.24353
 Alpha  occ. eigenvalues --   -3.13369  -1.88055  -1.87617  -1.87564  -1.19379
 Alpha  occ. eigenvalues --   -1.18932  -1.10408  -1.09817  -1.09345  -1.05199
 Alpha  occ. eigenvalues --   -1.03927  -1.02878  -1.01933  -0.92258  -0.91481
 Alpha  occ. eigenvalues --   -0.91122  -0.90796  -0.90010  -0.89650  -0.89000
 Alpha  occ. eigenvalues --   -0.88628  -0.87749  -0.87694  -0.86706  -0.85843
 Alpha  occ. eigenvalues --   -0.85427  -0.84661  -0.83836  -0.83277  -0.82802
 Alpha  occ. eigenvalues --   -0.81459  -0.80694  -0.79999  -0.79739  -0.78389
 Alpha  occ. eigenvalues --   -0.77484  -0.77366  -0.76331  -0.75895  -0.75034
 Alpha  occ. eigenvalues --   -0.74856  -0.74801  -0.74442  -0.73387  -0.72310
 Alpha  occ. eigenvalues --   -0.71438  -0.70450  -0.69402  -0.68814  -0.67615
 Alpha  occ. eigenvalues --   -0.66953  -0.66729  -0.65909  -0.64661  -0.64373
 Alpha  occ. eigenvalues --   -0.63998  -0.63966  -0.63219  -0.62807  -0.61968
 Alpha  occ. eigenvalues --   -0.61688  -0.60274  -0.60227  -0.60043  -0.59184
 Alpha  occ. eigenvalues --   -0.59014  -0.58429  -0.57986  -0.57619  -0.57317
 Alpha  occ. eigenvalues --   -0.56281  -0.55396  -0.55115  -0.54909  -0.54682
 Alpha  occ. eigenvalues --   -0.54584  -0.54478  -0.54222  -0.53777  -0.53176
 Alpha  occ. eigenvalues --   -0.53090  -0.52609  -0.52375  -0.52249  -0.51875
 Alpha  occ. eigenvalues --   -0.51388  -0.51154  -0.51014  -0.50744  -0.50729
 Alpha  occ. eigenvalues --   -0.50431  -0.50249  -0.50114  -0.49895  -0.49359
 Alpha  occ. eigenvalues --   -0.49241  -0.49184  -0.49004  -0.48940  -0.48703
 Alpha  occ. eigenvalues --   -0.48210  -0.48072  -0.47996  -0.47726  -0.47376
 Alpha  occ. eigenvalues --   -0.47328  -0.46976  -0.46833  -0.46503  -0.46438
 Alpha  occ. eigenvalues --   -0.45914  -0.45825  -0.45744  -0.45337  -0.45192
 Alpha  occ. eigenvalues --   -0.45022  -0.44916  -0.44647  -0.44446  -0.44303
 Alpha  occ. eigenvalues --   -0.44161  -0.43937  -0.43598  -0.43473  -0.43242
 Alpha  occ. eigenvalues --   -0.42982  -0.42669  -0.42373  -0.41995  -0.41892
 Alpha  occ. eigenvalues --   -0.41848  -0.41789  -0.41676  -0.41518  -0.41417
 Alpha  occ. eigenvalues --   -0.41076  -0.41015  -0.40593  -0.40456  -0.40165
 Alpha  occ. eigenvalues --   -0.39973  -0.39789  -0.39402  -0.39166  -0.39132
 Alpha  occ. eigenvalues --   -0.38492  -0.38289  -0.37946  -0.37831  -0.37602
 Alpha  occ. eigenvalues --   -0.37419  -0.37321  -0.37164  -0.36806  -0.36705
 Alpha  occ. eigenvalues --   -0.36564  -0.36295  -0.36042  -0.35825  -0.35584
 Alpha  occ. eigenvalues --   -0.35176  -0.35121  -0.34769  -0.34099  -0.33942
 Alpha  occ. eigenvalues --   -0.33495  -0.33154  -0.31949  -0.31321  -0.30966
 Alpha  occ. eigenvalues --   -0.30333  -0.30257  -0.29226  -0.27810  -0.22897
 Alpha  occ. eigenvalues --   -0.20948
 Alpha virt. eigenvalues --   -0.06491  -0.02462   0.01277   0.04621   0.05660
 Alpha virt. eigenvalues --    0.05830   0.06250   0.06916   0.06964   0.07734
 Alpha virt. eigenvalues --    0.08347   0.09584   0.11151   0.11829   0.12088

 Mulliken charges:
               1
     1  Mg   0.824223
     2  C   -0.017791
     3  C   -0.181020
     4  C   -0.186732
     5  C   -0.188467
     6  N   -0.630003
     7  C    0.324332
     8  C   -0.176191
     9  C   -0.149867
    10  C    0.353928
    11  C   -0.301166
    12  C   -0.144011
    13  C   -0.268924
    14  C    0.615175
    15  O   -0.484196
    16  O   -0.463142
    17  N   -0.698267
    18  C    0.307933
    19  C    0.017231
    20  C   -0.008472
    21  C    0.289017
    22  C   -0.363475
    23  C   -0.068807
    24  C   -0.225930
    25  N   -0.690748
    26  C    0.270999
    27  C   -0.021378
    28  C    0.043209
    29  C    0.301408
    30  C   -0.369798
    31  C   -0.217213
    32  C   -0.286083
    33  N   -0.711701
    34  C    0.222152
    35  C   -0.024458
    36  C    0.032730
    37  C    0.326928
    38  C   -0.342743
    39  C    0.391067
    40  O   -0.469599
    41  C   -0.299911
    42  C    0.609179
    43  O   -0.405188
    44  O   -0.485409
    45  C   -0.086816
    46  C   -0.000294
    47  C   -0.144973
    48  C    0.116418
    49  C   -0.365368
    50  C   -0.210471
    51  C   -0.178836
    52  C   -0.181969
    53  C   -0.024067
    54  C   -0.331210
    55  C   -0.161301
    56  C   -0.175768
    57  C   -0.172244
    58  C   -0.046022
    59  C   -0.299858
    60  C   -0.190138
    61  C   -0.180016
    62  C   -0.168057
    63  C   -0.044165
    64  C   -0.295759
    65  C   -0.321915
    66  H    0.061708
    67  H    0.100921
    68  H    0.089569
    69  H    0.122528
    70  H    0.102860
    71  H    0.115001
    72  H    0.098780
    73  H    0.126177
    74  H    0.117811
    75  H    0.119416
    76  H    0.127966
    77  H    0.130120
    78  H    0.098314
    79  H    0.135321
    80  H    0.124411
    81  H    0.088532
    82  H    0.105045
    83  H    0.100829
    84  H    0.133270
    85  H    0.110055
    86  H    0.121176
    87  H    0.081409
    88  H    0.113898
    89  H    0.090156
    90  H    0.100008
    91  H    0.092285
    92  H    0.111214
    93  H    0.158413
    94  H    0.119887
    95  H    0.176776
    96  H    0.133216
    97  H    0.106825
    98  H    0.115832
    99  H    0.139178
   100  H    0.135166
   101  H    0.094891
   102  H    0.104297
   103  H    0.117402
   104  H    0.122689
   105  H    0.103170
   106  H    0.100142
   107  H    0.110737
   108  H    0.097904
   109  H    0.058338
   110  H    0.058953
   111  H    0.096007
   112  H    0.095502
   113  H    0.095451
   114  H    0.089972
   115  H    0.086563
   116  H    0.096049
   117  H    0.108342
   118  H    0.079515
   119  H    0.064165
   120  H    0.069232
   121  H    0.087523
   122  H    0.121747
   123  H    0.102318
   124  H    0.072829
   125  H    0.097282
   126  H    0.079799
   127  H    0.107205
   128  H    0.075673
   129  H    0.080050
   130  H    0.083506
   131  H    0.085685
   132  H    0.078693
   133  H    0.099282
   134  H    0.089922
   135  H    0.089753
   136  H    0.095801
   137  H    0.113548
 Sum of Mulliken charges =   0.00000

 Dipole moment (field-independent basis, Debye):
    X=              1.1886    Y=              5.0742    Z=              0.0426  Tot=              5.2117
 Quadrupole moment (field-independent basis, Debye-Ang):
   XX=           -358.8729   YY=           -395.0346   ZZ=           -398.7124
   XY=            -31.2792   XZ=              7.9145   YZ=             -0.7140

 Normal termination of Gaussian 09 at Fri Jun 28 18:47:11 2019.
