 Gaussian 09, Revision D.01,
 Gaussian 09:  ES64L-G09RevD.01 24-Apr-2013

 -------------------------------------
 # td=(NStates=1) CAM-B3LYP/6-31G(d,p)
 -------------------------------------

 --
 TD
 --
 Symbolic Z-matrix:
 Charge =  0 Multiplicity = 1

                         Standard orientation:
 ---------------------------------------------------------------------
 Center     Atomic      Atomic             Coordinates (Angstroms)
 Number     Number       Type             X           Y           Z
 ---------------------------------------------------------------------
      1         12           0       -7.193581    0.579880    0.090641
      2          6           0       -4.880910   -1.953868    0.477284
      3          6           0       -4.790813    2.833676    1.334423
      4          6           0       -9.344839    3.173551   -0.334908
      5          6           0       -9.542551   -1.646749   -0.924841
      6          7           0       -5.212326    0.419592    0.833387
      7          6           0       -4.330560   -0.740471    0.829712
      8          6           0       -2.916079   -0.495572    1.268932
      9          6           0       -2.947254    1.000093    1.786100
     10          6           0       -4.355707    1.407838    1.207346
     11          6           0       -2.820448    1.191077    3.346736
     12          6           0       -1.865669   -0.688469    0.166347
     13          6           0       -0.449450   -0.515673    0.707000
     14          6           0        0.542432   -0.725501   -0.436453
     15          8           0        0.252563   -1.006308   -1.551720
     16          8           0        1.871625   -0.573546   -0.041620
     17          7           0       -7.133498    2.577905    0.432897
     18          6           0       -5.997563    3.305281    0.834853
     19          6           0       -6.458653    4.780176    0.910127
     20          6           0       -7.720859    4.874909    0.492117
     21          6           0       -8.138589    3.451046    0.202574
     22          6           0       -5.519183    5.869300    1.373491
     23          6           0       -8.589546    6.011706    0.307978
     24          6           0       -8.140006    7.299389    0.119786
     25          7           0       -9.075555    0.662281   -0.586080
     26          6           0       -9.836889    1.938976   -0.675642
     27          6           0      -11.164185    1.654629   -1.239131
     28          6           0      -11.274281    0.234448   -1.429049
     29          6           0       -9.855753   -0.338225   -1.033232
     30          6           0      -12.272103    2.618313   -1.489520
     31          6           0      -12.368231   -0.750523   -1.900906
     32          6           0      -12.271977   -0.990812   -3.398464
     33          7           0       -7.311169   -1.428298   -0.102668
     34          6           0       -8.246960   -2.161190   -0.465580
     35          6           0       -7.816507   -3.581247   -0.543027
     36          6           0       -6.562914   -3.496086   -0.045372
     37          6           0       -6.212157   -2.206961    0.161109
     38          6           0       -8.590009   -4.710784   -0.975437
     39          6           0       -5.399402   -4.425509    0.161901
     40          8           0       -5.245118   -5.619108    0.138949
     41          6           0       -4.199843   -3.409066    0.509208
     42          6           0       -3.585132   -3.802348    1.820575
     43          8           0       -3.836940   -3.259749    2.946279
     44          8           0       -2.709884   -4.793360    1.624458
     45          6           0       -2.039370   -5.201500    2.903403
     46          6           0        2.889375   -0.688262   -1.041422
     47          6           0        4.197021   -0.441872   -0.460856
     48          6           0        5.170803    0.363668   -0.873995
     49          6           0        5.050491    1.219679   -2.145973
     50          6           0        6.469997    0.394897   -0.136576
     51          6           0        7.549771   -0.151358   -0.873168
     52          6           0        8.882385   -0.245030   -0.160693
     53          6           0       10.090651   -0.543300   -0.956417
     54          6           0       10.096538   -2.065051   -1.492281
     55          6           0       11.358296   -0.351925    0.045510
     56          6           0       12.717594   -0.508917   -0.678985
     57          6           0       13.985494   -0.112731    0.143247
     58          6           0       15.268105   -0.159705   -0.548474
     59          6           0       15.618095   -1.556919   -0.981762
     60          6           0       16.320143    0.332942    0.378744
     61          6           0       17.779278    0.509006   -0.192448
     62          6           0       18.747522    1.378368    0.699889
     63          6           0       20.193375    1.396146    0.091876
     64          6           0       20.285415    2.239755   -1.066538
     65          6           0       21.166905    2.043365    1.218086
     66          1           0       -4.232303    3.534638    1.782486
     67          1           0       -9.960647    4.015131   -0.542332
     68          1           0      -10.329416   -2.458743   -1.178910
     69          1           0       -2.656486   -1.249404    2.113300
     70          1           0       -2.335863    1.633885    1.220911
     71          1           0       -1.793555    0.896015    3.611595
     72          1           0       -3.045249    2.283009    3.460932
     73          1           0       -3.577944    0.368155    3.712169
     74          1           0       -2.213042   -1.605328   -0.265489
     75          1           0       -1.924254   -0.033372   -0.594191
     76          1           0       -0.305655    0.579170    0.998210
     77          1           0       -0.065800   -1.261875    1.416894
     78          1           0       -4.881283    6.119839    0.516459
     79          1           0       -6.245494    6.602457    1.856053
     80          1           0       -4.855072    5.459676    2.120167
     81          1           0       -9.799897    5.676511    0.433755
     82          1           0       -8.804223    8.141650   -0.044200
     83          1           0       -7.077929    7.552210    0.156214
     84          1           0      -11.990379    3.119069   -2.572903
     85          1           0      -13.258201    2.234102   -1.575652
     86          1           0      -12.134180    3.376028   -0.621349
     87          1           0      -12.458116   -1.657196   -1.218202
     88          1           0      -13.327627   -0.247497   -1.630757
     89          1           0      -13.147767   -1.659697   -3.797818
     90          1           0      -12.240207   -0.066531   -3.792475
     91          1           0      -11.477369   -1.586051   -3.604861
     92          1           0       -8.885619   -4.782724   -1.990641
     93          1           0       -7.954284   -5.638534   -0.708243
     94          1           0       -9.513062   -4.998548   -0.539762
     95          1           0       -3.339181   -3.487016   -0.289066
     96          1           0       -1.253686   -4.415895    3.159228
     97          1           0       -2.598867   -5.473487    3.711467
     98          1           0       -1.283680   -6.191427    2.496296
     99          1           0        2.954717   -1.745088   -1.334064
    100          1           0        2.896354    0.011454   -1.938056
    101          1           0        4.285978   -0.941591    0.560305
    102          1           0        4.151343    1.269229   -2.662633
    103          1           0        5.333939    2.397088   -1.694062
    104          1           0        5.732667    1.109856   -2.889078
    105          1           0        6.826027    1.376300   -0.154411
    106          1           0        6.091186    0.057581    0.704097
    107          1           0        7.326721   -1.047238   -1.413188
    108          1           0        7.854328    0.329405   -1.769910
    109          1           0        8.845598    0.885010    0.325716
    110          1           0        8.610318   -0.985091    0.769317
    111          1           0       10.197297   -0.229561   -1.897542
    112          1           0        9.377244   -2.257837   -2.315891
    113          1           0       10.866560   -2.200136   -2.424081
    114          1           0        9.872519   -2.864798   -0.659606
    115          1           0       11.631540    0.710485    0.293287
    116          1           0       11.222891   -0.903554    0.850263
    117          1           0       12.771150   -1.460899   -1.023161
    118          1           0       12.637070    0.245319   -1.617985
    119          1           0       13.754122    0.870786    0.653951
    120          1           0       14.140695   -0.703605    1.078552
    121          1           0       15.212315    0.569019   -1.164491
    122          1           0       15.642270   -2.345076   -0.155688
    123          1           0       14.950201   -2.164735   -1.571034
    124          1           0       16.504241   -1.428942   -1.708881
    125          1           0       15.944716    1.184097    0.683283
    126          1           0       16.321004   -0.373480    1.296974
    127          1           0       18.230298   -0.565305   -0.373403
    128          1           0       17.499892    1.140950   -1.221406
    129          1           0       18.448048    2.341180    0.972966
    130          1           0       18.681361    0.826665    1.727506
    131          1           0       20.656596    0.313040   -0.068515
    132          1           0       19.964913    3.387926   -1.018861
    133          1           0       21.394136    2.295650   -1.431425
    134          1           0       19.717420    1.808937   -1.839993
    135          1           0       21.028617    1.400508    2.062498
    136          1           0       22.228419    2.168213    0.935317
    137          1           0       20.702717    3.037999    1.589600
 ---------------------------------------------------------------------

 SCF Done:  E(RCAM-B3LYP) =  -2932.57576094     A.U. after   17 cycles

 Excitation energies and oscillator strengths:

 Excited State   1:      Singlet-A      1.9513 eV  635.41 nm  f=0.2817  <S**2>=0.000
     240 -> 243       -0.18057
     241 -> 242        0.68128
 This state for optimization and/or second-order correction.
 Total Energy, E(TD-HF/TD-KS) =  -2932.50405361
 Copying the excited state density for this state as the 1-particle RhoCI density.

 The electronic state is 1-A.
 Alpha  occ. eigenvalues --  -46.83682 -19.27732 -19.25666 -19.21411 -19.21146
 Alpha  occ. eigenvalues --  -19.20303 -14.43348 -14.39822 -14.39121 -14.38445
 Alpha  occ. eigenvalues --  -10.39516 -10.39257 -10.35645 -10.33620 -10.32628
 Alpha  occ. eigenvalues --  -10.31470 -10.30923 -10.30449 -10.29852 -10.29805
 Alpha  occ. eigenvalues --  -10.29710 -10.29205 -10.28908 -10.28458 -10.28098
 Alpha  occ. eigenvalues --  -10.27961 -10.27941 -10.27813 -10.27794 -10.27678
 Alpha  occ. eigenvalues --  -10.27616 -10.27549 -10.27537 -10.27368 -10.27321
 Alpha  occ. eigenvalues --  -10.27261 -10.27255 -10.27196 -10.27194 -10.26988
 Alpha  occ. eigenvalues --  -10.26943 -10.26906 -10.26778 -10.26776 -10.26623
 Alpha  occ. eigenvalues --  -10.26511 -10.26247 -10.25822 -10.25657 -10.25458
 Alpha  occ. eigenvalues --  -10.25436 -10.25252 -10.24983 -10.24853 -10.24716
 Alpha  occ. eigenvalues --  -10.24695 -10.24560 -10.24492 -10.24320 -10.24135
 Alpha  occ. eigenvalues --  -10.23859 -10.23714 -10.23653 -10.23565 -10.23296
 Alpha  occ. eigenvalues --   -3.12892  -1.87584  -1.87144  -1.87071  -1.17829
 Alpha  occ. eigenvalues --   -1.17376  -1.11982  -1.09890  -1.06334  -1.06146
 Alpha  occ. eigenvalues --   -1.03116  -1.02204  -0.99873  -0.93089  -0.92074
 Alpha  occ. eigenvalues --   -0.92022  -0.90656  -0.89633  -0.89457  -0.88981
 Alpha  occ. eigenvalues --   -0.88486  -0.87786  -0.87126  -0.86701  -0.86214
 Alpha  occ. eigenvalues --   -0.85456  -0.83893  -0.83316  -0.83144  -0.82897
 Alpha  occ. eigenvalues --   -0.81433  -0.80823  -0.80613  -0.80027  -0.78337
 Alpha  occ. eigenvalues --   -0.78029  -0.77119  -0.76503  -0.75783  -0.75682
 Alpha  occ. eigenvalues --   -0.75056  -0.74724  -0.74422  -0.73577  -0.72187
 Alpha  occ. eigenvalues --   -0.71809  -0.70413  -0.69473  -0.69096  -0.68422
 Alpha  occ. eigenvalues --   -0.67512  -0.66868  -0.65240  -0.64582  -0.64462
 Alpha  occ. eigenvalues --   -0.64104  -0.63848  -0.63785  -0.62915  -0.62077
 Alpha  occ. eigenvalues --   -0.61873  -0.60408  -0.60149  -0.59587  -0.58735
 Alpha  occ. eigenvalues --   -0.57973  -0.57523  -0.57446  -0.57182  -0.56883
 Alpha  occ. eigenvalues --   -0.56269  -0.55992  -0.55872  -0.55347  -0.54851
 Alpha  occ. eigenvalues --   -0.54737  -0.54497  -0.54349  -0.53549  -0.53018
 Alpha  occ. eigenvalues --   -0.52820  -0.52321  -0.52258  -0.51964  -0.51783
 Alpha  occ. eigenvalues --   -0.51579  -0.51373  -0.51182  -0.50791  -0.50663
 Alpha  occ. eigenvalues --   -0.50583  -0.50315  -0.50220  -0.50001  -0.49451
 Alpha  occ. eigenvalues --   -0.49316  -0.48864  -0.48797  -0.48671  -0.48474
 Alpha  occ. eigenvalues --   -0.48370  -0.47926  -0.47751  -0.47569  -0.47185
 Alpha  occ. eigenvalues --   -0.46885  -0.46735  -0.46640  -0.46465  -0.46309
 Alpha  occ. eigenvalues --   -0.46065  -0.45821  -0.45652  -0.45511  -0.45301
 Alpha  occ. eigenvalues --   -0.45061  -0.44725  -0.44691  -0.44611  -0.44372
 Alpha  occ. eigenvalues --   -0.44052  -0.43750  -0.43513  -0.43286  -0.43269
 Alpha  occ. eigenvalues --   -0.43057  -0.42981  -0.42632  -0.42460  -0.42211
 Alpha  occ. eigenvalues --   -0.42011  -0.41943  -0.41694  -0.41565  -0.41453
 Alpha  occ. eigenvalues --   -0.41173  -0.40800  -0.40563  -0.40479  -0.40179
 Alpha  occ. eigenvalues --   -0.39736  -0.39622  -0.39427  -0.39343  -0.39260
 Alpha  occ. eigenvalues --   -0.39171  -0.38225  -0.38053  -0.37841  -0.37434
 Alpha  occ. eigenvalues --   -0.37168  -0.37155  -0.36805  -0.36597  -0.36514
 Alpha  occ. eigenvalues --   -0.36389  -0.36203  -0.35904  -0.35871  -0.35442
 Alpha  occ. eigenvalues --   -0.35134  -0.34653  -0.34489  -0.33862  -0.33584
 Alpha  occ. eigenvalues --   -0.33158  -0.32667  -0.32229  -0.30991  -0.29894
 Alpha  occ. eigenvalues --   -0.29716  -0.28986  -0.28251  -0.27466  -0.23328
 Alpha  occ. eigenvalues --   -0.19954
 Alpha virt. eigenvalues --   -0.06031  -0.02298   0.01615   0.03063   0.05607
 Alpha virt. eigenvalues --    0.06021   0.06334   0.06720   0.07071   0.07194
 Alpha virt. eigenvalues --    0.07920   0.10274   0.11041   0.11578   0.11767

 Mulliken charges:
               1
     1  Mg   0.820426
     2  C    0.036331
     3  C   -0.185875
     4  C   -0.190720
     5  C   -0.183551
     6  N   -0.579478
     7  C    0.267085
     8  C   -0.169932
     9  C   -0.138992
    10  C    0.290069
    11  C   -0.289997
    12  C   -0.150283
    13  C   -0.265718
    14  C    0.592564
    15  O   -0.439605
    16  O   -0.508342
    17  N   -0.719877
    18  C    0.305544
    19  C   -0.045024
    20  C    0.078674
    21  C    0.335104
    22  C   -0.370879
    23  C   -0.082889
    24  C   -0.266558
    25  N   -0.702023
    26  C    0.288437
    27  C    0.009913
    28  C    0.002068
    29  C    0.329717
    30  C   -0.352429
    31  C   -0.248489
    32  C   -0.288453
    33  N   -0.689701
    34  C    0.263903
    35  C    0.028882
    36  C   -0.004452
    37  C    0.268558
    38  C   -0.419260
    39  C    0.395286
    40  O   -0.440417
    41  C   -0.330170
    42  C    0.639140
    43  O   -0.519061
    44  O   -0.435887
    45  C   -0.077349
    46  C    0.048577
    47  C   -0.157861
    48  C    0.103406
    49  C   -0.357958
    50  C   -0.165059
    51  C   -0.195457
    52  C   -0.138979
    53  C   -0.049714
    54  C   -0.338800
    55  C   -0.153499
    56  C   -0.183745
    57  C   -0.192175
    58  C   -0.022468
    59  C   -0.313003
    60  C   -0.162172
    61  C   -0.174980
    62  C   -0.166173
    63  C   -0.054577
    64  C   -0.278739
    65  C   -0.312824
    66  H    0.063218
    67  H    0.081834
    68  H    0.092101
    69  H    0.123609
    70  H    0.108935
    71  H    0.119892
    72  H    0.111989
    73  H    0.133247
    74  H    0.115011
    75  H    0.122929
    76  H    0.138527
    77  H    0.140709
    78  H    0.135728
    79  H    0.125743
    80  H    0.116511
    81  H    0.090547
    82  H    0.111881
    83  H    0.115804
    84  H    0.103965
    85  H    0.129684
    86  H    0.108650
    87  H    0.108492
    88  H    0.098252
    89  H    0.085040
    90  H    0.123241
    91  H    0.127129
    92  H    0.123749
    93  H    0.128458
    94  H    0.124029
    95  H    0.155821
    96  H    0.126642
    97  H    0.165549
    98  H    0.091666
    99  H    0.120284
   100  H    0.100638
   101  H    0.080856
   102  H    0.120948
   103  H    0.068729
   104  H    0.133671
   105  H    0.100972
   106  H    0.100800
   107  H    0.091344
   108  H    0.094307
   109  H    0.060443
   110  H    0.070828
   111  H    0.094416
   112  H    0.100685
   113  H    0.085884
   114  H    0.105041
   115  H    0.087733
   116  H    0.102234
   117  H    0.108074
   118  H    0.060626
   119  H    0.071023
   120  H    0.077322
   121  H    0.089335
   122  H    0.096125
   123  H    0.101014
   124  H    0.097761
   125  H    0.092513
   126  H    0.065840
   127  H    0.097157
   128  H    0.060137
   129  H    0.104313
   130  H    0.077349
   131  H    0.080057
   132  H    0.084836
   133  H    0.084456
   134  H    0.108280
   135  H    0.102098
   136  H    0.099587
   137  H    0.083611
 Sum of Mulliken charges =   0.00000

 Dipole moment (field-independent basis, Debye):
    X=              1.6671    Y=              5.1473    Z=             -0.3562  Tot=              5.4223
 Quadrupole moment (field-independent basis, Debye-Ang):
   XX=           -368.9567   YY=           -392.1460   ZZ=           -397.2178
   XY=            -30.6556   XZ=              6.6619   YZ=             -1.6960

 Normal termination of Gaussian 09 at Sat Jun 29 04:02:31 2019.
