 Gaussian 09, Revision D.01,
 Gaussian 09:  ES64L-G09RevD.01 24-Apr-2013

 -------------------------------------
 # td=(NStates=1) CAM-B3LYP/6-31G(d,p)
 -------------------------------------

 --
 TD
 --
 Symbolic Z-matrix:
 Charge =  0 Multiplicity = 1

                         Standard orientation:
 ---------------------------------------------------------------------
 Center     Atomic      Atomic             Coordinates (Angstroms)
 Number     Number       Type             X           Y           Z
 ---------------------------------------------------------------------
      1         12           0       -7.088861    0.565911    0.011605
      2          6           0       -4.931358   -1.923707    0.531856
      3          6           0       -4.809573    2.819735    1.212405
      4          6           0       -9.388634    3.062790   -0.374701
      5          6           0       -9.483037   -1.735296   -0.843691
      6          7           0       -5.162832    0.451689    0.745720
      7          6           0       -4.408516   -0.720755    0.910812
      8          6           0       -2.985142   -0.430020    1.264816
      9          6           0       -3.067496    1.055810    1.743080
     10          6           0       -4.450721    1.515004    1.105254
     11          6           0       -3.060719    1.200949    3.235817
     12          6           0       -2.010560   -0.578328    0.135819
     13          6           0       -0.475883   -0.254031    0.638613
     14          6           0        0.465506   -0.778527   -0.451631
     15          8           0        0.104041   -1.102956   -1.633285
     16          8           0        1.736568   -0.615453   -0.141890
     17          7           0       -7.066588    2.602876    0.303235
     18          6           0       -5.992634    3.329932    0.828420
     19          6           0       -6.433011    4.802752    0.905438
     20          6           0       -7.743950    4.794432    0.476366
     21          6           0       -8.122505    3.485503    0.113544
     22          6           0       -5.673103    5.898666    1.358464
     23          6           0       -8.585615    6.031239    0.348735
     24          6           0       -8.263548    7.264609    0.003205
     25          7           0       -9.159610    0.614348   -0.436550
     26          6           0       -9.846823    1.766940   -0.578000
     27          6           0      -11.157892    1.437543   -1.105785
     28          6           0      -11.182038    0.023300   -1.278919
     29          6           0       -9.882636   -0.387112   -0.834808
     30          6           0      -12.315900    2.352044   -1.416611
     31          6           0      -12.240907   -0.733550   -1.884353
     32          6           0      -12.224089   -0.944572   -3.426984
     33          7           0       -7.263058   -1.456970   -0.171259
     34          6           0       -8.263770   -2.301056   -0.528399
     35          6           0       -7.838997   -3.659639   -0.478672
     36          6           0       -6.454624   -3.561751   -0.143986
     37          6           0       -6.152945   -2.199252    0.097067
     38          6           0       -8.694334   -4.847836   -0.708867
     39          6           0       -5.316361   -4.313528    0.298458
     40          8           0       -5.062096   -5.567144    0.213388
     41          6           0       -4.173454   -3.331597    0.574904
     42          6           0       -3.559138   -3.629339    1.926502
     43          8           0       -3.793696   -3.055730    2.962515
     44          8           0       -2.661039   -4.601580    1.653166
     45          6           0       -1.972660   -4.981513    2.906346
     46          6           0        2.731513   -0.743159   -1.239348
     47          6           0        4.039086   -0.640672   -0.572698
     48          6           0        5.019511    0.291858   -0.982811
     49          6           0        4.960841    1.306082   -2.134636
     50          6           0        6.387892    0.213698   -0.181242
     51          6           0        7.581100   -0.256733   -0.945441
     52          6           0        8.870546   -0.165577   -0.207921
     53          6           0       10.239769   -0.508880   -0.892238
     54          6           0       10.185177   -1.968561   -1.374193
     55          6           0       11.477466   -0.111925   -0.165357
     56          6           0       12.804365   -0.315069   -0.906093
     57          6           0       13.978413   -0.051475   -0.000771
     58          6           0       15.397402   -0.084329   -0.580104
     59          6           0       15.624604   -1.614115   -0.883003
     60          6           0       16.418372    0.432002    0.367727
     61          6           0       17.904066    0.549538   -0.061785
     62          6           0       18.828855    1.198839    0.870760
     63          6           0       20.282470    1.294931    0.261095
     64          6           0       20.360435    2.180124   -0.926421
     65          6           0       21.219270    1.863607    1.313152
     66          1           0       -3.895174    3.486910    1.798423
     67          1           0      -10.185134    3.685462   -0.696748
     68          1           0      -10.415042   -2.534469   -1.084360
     69          1           0       -2.509134   -1.226092    2.087713
     70          1           0       -2.270876    1.691535    1.141116
     71          1           0       -1.976650    0.990963    3.549717
     72          1           0       -3.306787    2.147581    3.527407
     73          1           0       -3.593400    0.499809    3.843962
     74          1           0       -2.029901   -1.510221   -0.491597
     75          1           0       -2.200895    0.087798   -0.680313
     76          1           0       -0.462242    0.877254    0.601342
     77          1           0        0.056767   -0.575380    1.623774
     78          1           0       -5.228260    6.541939    0.487930
     79          1           0       -6.182711    6.530067    1.966444
     80          1           0       -4.878248    5.401813    2.030755
     81          1           0       -9.729397    5.768311    0.508170
     82          1           0       -8.824149    8.244535    0.025049
     83          1           0       -7.225592    7.535357    0.123918
     84          1           0      -12.137373    2.923026   -2.428163
     85          1           0      -13.168985    1.775961   -1.695425
     86          1           0      -12.619900    3.082913   -0.713101
     87          1           0      -12.283695   -1.686681   -1.377138
     88          1           0      -13.243015   -0.272965   -1.586050
     89          1           0      -13.292487   -1.306907   -3.710940
     90          1           0      -12.168211    0.040188   -3.852672
     91          1           0      -11.320390   -1.589311   -3.681805
     92          1           0       -9.062398   -4.721659   -1.671363
     93          1           0       -8.068045   -5.698912   -0.658497
     94          1           0       -9.574739   -4.846184   -0.124932
     95          1           0       -3.477143   -3.503200   -0.185255
     96          1           0       -1.403145   -4.203295    3.359509
     97          1           0       -2.865526   -5.214016    3.588198
     98          1           0       -1.463945   -5.816090    2.540603
     99          1           0        2.682012   -1.722308   -1.668938
    100          1           0        2.487276   -0.045111   -2.001206
    101          1           0        4.018765   -1.087986    0.379752
    102          1           0        3.969242    1.347475   -2.660624
    103          1           0        5.425253    2.258290   -1.768067
    104          1           0        5.818337    0.996833   -2.859847
    105          1           0        6.504709    1.397476    0.116808
    106          1           0        6.398702   -0.491295    0.639450
    107          1           0        7.564983   -1.227015   -1.353923
    108          1           0        7.910160    0.293231   -1.882805
    109          1           0        9.027393    0.795450    0.223251
    110          1           0        8.805414   -0.976562    0.525979
    111          1           0       10.375287    0.045188   -1.921768
    112          1           0        9.334302   -2.108238   -1.977659
    113          1           0       11.136916   -2.312662   -1.810853
    114          1           0       10.116085   -2.538882   -0.432434
    115          1           0       11.403346    1.046556    0.307800
    116          1           0       11.776248   -0.675199    0.737392
    117          1           0       12.697465   -1.497761   -1.264516
    118          1           0       12.868544    0.259344   -1.750314
    119          1           0       13.791069    0.975185    0.373356
    120          1           0       13.900000   -0.793859    0.909165
    121          1           0       15.356322    0.363832   -1.646902
    122          1           0       15.802232   -2.205797    0.080657
    123          1           0       14.440481   -1.963836   -1.389024
    124          1           0       16.633782   -2.078694   -1.562800
    125          1           0       16.146664    1.439934    0.724818
    126          1           0       16.334102   -0.012626    1.490993
    127          1           0       18.280626   -0.565021   -0.553920
    128          1           0       17.671287    1.115042   -1.117793
    129          1           0       18.531989    2.192385    0.947478
    130          1           0       19.098012    0.586542    1.534675
    131          1           0       20.424831    0.309062   -0.126405
    132          1           0       19.780239    3.100438   -0.685402
    133          1           0       21.414298    2.569716   -1.207428
    134          1           0       19.935002    1.611279   -1.768010
    135          1           0       21.352414    1.181484    2.270040
    136          1           0       22.205721    1.871508    0.959092
    137          1           0       20.942515    2.808782    1.450728
 ---------------------------------------------------------------------

 SCF Done:  E(RCAM-B3LYP) =  -2932.67170620     A.U. after   17 cycles

 Excitation energies and oscillator strengths:

 Excited State   1:      Singlet-A      2.0758 eV  597.29 nm  f=0.2564  <S**2>=0.000
     240 -> 243        0.25271
     241 -> 242        0.65307
 This state for optimization and/or second-order correction.
 Total Energy, E(TD-HF/TD-KS) =  -2932.59542316
 Copying the excited state density for this state as the 1-particle RhoCI density.

 The electronic state is 1-A.
 Alpha  occ. eigenvalues --  -46.84375 -19.26764 -19.26392 -19.21541 -19.19708
 Alpha  occ. eigenvalues --  -19.18823 -14.42128 -14.39789 -14.38713 -14.38374
 Alpha  occ. eigenvalues --  -10.39215 -10.39001 -10.34115 -10.31445 -10.30859
 Alpha  occ. eigenvalues --  -10.30660 -10.30603 -10.30498 -10.29746 -10.29564
 Alpha  occ. eigenvalues --  -10.29483 -10.28684 -10.28654 -10.28453 -10.28408
 Alpha  occ. eigenvalues --  -10.28348 -10.28304 -10.28276 -10.28248 -10.28178
 Alpha  occ. eigenvalues --  -10.28173 -10.28129 -10.27932 -10.27503 -10.27375
 Alpha  occ. eigenvalues --  -10.27282 -10.27102 -10.27047 -10.27035 -10.27007
 Alpha  occ. eigenvalues --  -10.26736 -10.26681 -10.26652 -10.26328 -10.26307
 Alpha  occ. eigenvalues --  -10.26261 -10.26260 -10.26168 -10.26077 -10.26072
 Alpha  occ. eigenvalues --  -10.26065 -10.26064 -10.25943 -10.25841 -10.25432
 Alpha  occ. eigenvalues --  -10.25327 -10.25207 -10.25206 -10.24968 -10.24917
 Alpha  occ. eigenvalues --  -10.24577 -10.24541 -10.24528 -10.23740 -10.23185
 Alpha  occ. eigenvalues --   -3.13375  -1.88086  -1.87625  -1.87535  -1.17918
 Alpha  occ. eigenvalues --   -1.17749  -1.09874  -1.06653  -1.05676  -1.04945
 Alpha  occ. eigenvalues --   -1.04330  -1.03491  -1.02008  -0.93138  -0.91851
 Alpha  occ. eigenvalues --   -0.91325  -0.90345  -0.89846  -0.89336  -0.89149
 Alpha  occ. eigenvalues --   -0.89015  -0.88494  -0.87680  -0.87278  -0.86823
 Alpha  occ. eigenvalues --   -0.85216  -0.84621  -0.83846  -0.83722  -0.82716
 Alpha  occ. eigenvalues --   -0.82146  -0.81360  -0.81353  -0.80898  -0.79008
 Alpha  occ. eigenvalues --   -0.78498  -0.77177  -0.76364  -0.76210  -0.75913
 Alpha  occ. eigenvalues --   -0.75757  -0.75669  -0.73813  -0.73114  -0.72454
 Alpha  occ. eigenvalues --   -0.71944  -0.70724  -0.69820  -0.69098  -0.68323
 Alpha  occ. eigenvalues --   -0.66601  -0.66436  -0.65489  -0.64861  -0.64519
 Alpha  occ. eigenvalues --   -0.63718  -0.63579  -0.63135  -0.62761  -0.62220
 Alpha  occ. eigenvalues --   -0.61403  -0.60740  -0.60599  -0.59662  -0.59303
 Alpha  occ. eigenvalues --   -0.58902  -0.57944  -0.57576  -0.57296  -0.56640
 Alpha  occ. eigenvalues --   -0.56362  -0.56026  -0.55555  -0.55269  -0.55140
 Alpha  occ. eigenvalues --   -0.54462  -0.54350  -0.53989  -0.53811  -0.53217
 Alpha  occ. eigenvalues --   -0.52837  -0.52693  -0.52150  -0.52037  -0.51790
 Alpha  occ. eigenvalues --   -0.51653  -0.51259  -0.51156  -0.51025  -0.50804
 Alpha  occ. eigenvalues --   -0.50617  -0.50347  -0.50154  -0.49704  -0.49573
 Alpha  occ. eigenvalues --   -0.49313  -0.49123  -0.48988  -0.48713  -0.48460
 Alpha  occ. eigenvalues --   -0.48347  -0.48157  -0.47663  -0.47449  -0.47347
 Alpha  occ. eigenvalues --   -0.47029  -0.46797  -0.46591  -0.46134  -0.46072
 Alpha  occ. eigenvalues --   -0.45988  -0.45776  -0.45691  -0.45599  -0.45439
 Alpha  occ. eigenvalues --   -0.45154  -0.44890  -0.44770  -0.44546  -0.44297
 Alpha  occ. eigenvalues --   -0.44187  -0.44047  -0.43337  -0.43214  -0.43127
 Alpha  occ. eigenvalues --   -0.42980  -0.42953  -0.42808  -0.42581  -0.42427
 Alpha  occ. eigenvalues --   -0.42330  -0.42283  -0.42078  -0.41910  -0.41192
 Alpha  occ. eigenvalues --   -0.40958  -0.40822  -0.40705  -0.40471  -0.40307
 Alpha  occ. eigenvalues --   -0.40179  -0.40171  -0.39731  -0.39475  -0.38860
 Alpha  occ. eigenvalues --   -0.38569  -0.38484  -0.38242  -0.37983  -0.37736
 Alpha  occ. eigenvalues --   -0.37479  -0.37373  -0.37242  -0.36832  -0.36752
 Alpha  occ. eigenvalues --   -0.36354  -0.36208  -0.35599  -0.35366  -0.35213
 Alpha  occ. eigenvalues --   -0.34845  -0.34759  -0.34124  -0.33921  -0.33592
 Alpha  occ. eigenvalues --   -0.33068  -0.32632  -0.32519  -0.31466  -0.29111
 Alpha  occ. eigenvalues --   -0.29029  -0.28831  -0.27962  -0.27298  -0.23378
 Alpha  occ. eigenvalues --   -0.21103
 Alpha virt. eigenvalues --   -0.06417  -0.03130   0.00777   0.04400   0.04616
 Alpha virt. eigenvalues --    0.05102   0.05464   0.06308   0.07116   0.07533
 Alpha virt. eigenvalues --    0.08373   0.10054   0.10148   0.11177   0.11487

 Mulliken charges:
               1
     1  Mg   0.816820
     2  C    0.042822
     3  C   -0.211765
     4  C   -0.165803
     5  C   -0.205239
     6  N   -0.657255
     7  C    0.308872
     8  C   -0.143554
     9  C   -0.149612
    10  C    0.349979
    11  C   -0.300381
    12  C   -0.189749
    13  C   -0.269130
    14  C    0.599867
    15  O   -0.519132
    16  O   -0.471900
    17  N   -0.721560
    18  C    0.322410
    19  C    0.029407
    20  C    0.016537
    21  C    0.323102
    22  C   -0.385706
    23  C   -0.062379
    24  C   -0.253876
    25  N   -0.698282
    26  C    0.292025
    27  C   -0.003587
    28  C    0.054508
    29  C    0.329305
    30  C   -0.381727
    31  C   -0.273204
    32  C   -0.292308
    33  N   -0.752766
    34  C    0.311177
    35  C    0.016064
    36  C   -0.009604
    37  C    0.322920
    38  C   -0.366626
    39  C    0.342619
    40  O   -0.505840
    41  C   -0.284381
    42  C    0.637831
    43  O   -0.478649
    44  O   -0.456777
    45  C   -0.093550
    46  C    0.022915
    47  C   -0.152513
    48  C    0.100658
    49  C   -0.359993
    50  C   -0.200701
    51  C   -0.179796
    52  C   -0.167798
    53  C   -0.065550
    54  C   -0.315207
    55  C   -0.155784
    56  C   -0.170839
    57  C   -0.174470
    58  C   -0.048913
    59  C   -0.269404
    60  C   -0.162499
    61  C   -0.178507
    62  C   -0.114190
    63  C   -0.095860
    64  C   -0.299409
    65  C   -0.300989
    66  H    0.088209
    67  H    0.090359
    68  H    0.078394
    69  H    0.107770
    70  H    0.091664
    71  H    0.095115
    72  H    0.113387
    73  H    0.141237
    74  H    0.133498
    75  H    0.122654
    76  H    0.142394
    77  H    0.124983
    78  H    0.120259
    79  H    0.140402
    80  H    0.097791
    81  H    0.078902
    82  H    0.111280
    83  H    0.089606
    84  H    0.102524
    85  H    0.115300
    86  H    0.126870
    87  H    0.101737
    88  H    0.096594
    89  H    0.097977
    90  H    0.117443
    91  H    0.110661
    92  H    0.133854
    93  H    0.152082
    94  H    0.133453
    95  H    0.176622
    96  H    0.134793
    97  H    0.136156
    98  H    0.136868
    99  H    0.141407
   100  H    0.125776
   101  H    0.110407
   102  H    0.122036
   103  H    0.124935
   104  H    0.122970
   105  H    0.076864
   106  H    0.110365
   107  H    0.107027
   108  H    0.079490
   109  H    0.093433
   110  H    0.085671
   111  H    0.062766
   112  H    0.112101
   113  H    0.103567
   114  H    0.097132
   115  H    0.054562
   116  H    0.090439
   117  H    0.070402
   118  H    0.106217
   119  H    0.094188
   120  H    0.086421
   121  H    0.089248
   122  H    0.098728
   123  H    0.055733
   124  H    0.062483
   125  H    0.086995
   126  H    0.063831
   127  H    0.054356
   128  H    0.069737
   129  H    0.099792
   130  H    0.107856
   131  H    0.089169
   132  H    0.087705
   133  H    0.088124
   134  H    0.105566
   135  H    0.078153
   136  H    0.108143
   137  H    0.112290
 Sum of Mulliken charges =   0.00000

 Dipole moment (field-independent basis, Debye):
    X=              2.8129    Y=              5.2835    Z=              0.8560  Tot=              6.0465
 Quadrupole moment (field-independent basis, Debye-Ang):
   XX=           -348.0961   YY=           -400.0929   ZZ=           -398.4489
   XY=            -12.3167   XZ=             13.4774   YZ=             -1.6275

 Normal termination of Gaussian 09 at Thu Jun 27 12:02:47 2019.
