 Gaussian 09, Revision D.01,
 Gaussian 09:  ES64L-G09RevD.01 24-Apr-2013

 -------------------------------------
 # td=(NStates=1) CAM-B3LYP/6-31G(d,p)
 -------------------------------------

 --
 TD
 --
 Symbolic Z-matrix:
 Charge =  0 Multiplicity = 1

                         Standard orientation:
 ---------------------------------------------------------------------
 Center     Atomic      Atomic             Coordinates (Angstroms)
 Number     Number       Type             X           Y           Z
 ---------------------------------------------------------------------
      1         12           0       -7.128062    0.630210    0.108538
      2          6           0       -4.833803   -1.911608    0.440915
      3          6           0       -4.876540    2.807479    1.154602
      4          6           0       -9.489495    3.018777   -0.304093
      5          6           0       -9.530051   -1.688417   -0.915368
      6          7           0       -5.084562    0.453364    0.672321
      7          6           0       -4.369032   -0.696767    0.803823
      8          6           0       -2.970749   -0.339869    1.332939
      9          6           0       -3.077920    1.170759    1.623208
     10          6           0       -4.461436    1.536252    1.122425
     11          6           0       -3.060122    1.355772    3.191785
     12          6           0       -1.954621   -0.675973    0.133821
     13          6           0       -0.459533   -0.720972    0.703013
     14          6           0        0.470178   -0.885030   -0.425834
     15          8           0        0.119525   -1.233147   -1.521589
     16          8           0        1.719132   -0.500235   -0.187651
     17          7           0       -7.181319    2.560846    0.323255
     18          6           0       -6.110924    3.334388    0.785718
     19          6           0       -6.513836    4.781664    0.818312
     20          6           0       -7.820945    4.826242    0.393555
     21          6           0       -8.227972    3.496857    0.074511
     22          6           0       -5.613771    5.786596    1.288459
     23          6           0       -8.571489    6.044336    0.317770
     24          6           0       -8.200720    7.304525    0.034857
     25          7           0       -9.146193    0.657560   -0.523075
     26          6           0       -9.956421    1.741261   -0.570613
     27          6           0      -11.324456    1.485976   -0.991866
     28          6           0      -11.400705    0.146097   -1.222972
     29          6           0       -9.999535   -0.330642   -0.872607
     30          6           0      -12.245584    2.453179   -1.346893
     31          6           0      -12.480918   -0.736119   -1.710875
     32          6           0      -12.378893   -0.907164   -3.233982
     33          7           0       -7.239881   -1.375900   -0.271174
     34          6           0       -8.301827   -2.287169   -0.594323
     35          6           0       -7.790992   -3.685366   -0.494511
     36          6           0       -6.491322   -3.521631   -0.165915
     37          6           0       -6.216289   -2.153859    0.053158
     38          6           0       -8.539652   -4.910338   -0.924239
     39          6           0       -5.317288   -4.386097    0.158110
     40          8           0       -5.144607   -5.608530    0.188688
     41          6           0       -4.161448   -3.251151    0.556932
     42          6           0       -3.512508   -3.666080    1.894343
     43          8           0       -3.794864   -3.039258    2.949120
     44          8           0       -2.704891   -4.722179    1.640982
     45          6           0       -1.962893   -5.126898    2.871493
     46          6           0        2.759933   -0.675541   -1.134565
     47          6           0        4.087413   -0.455778   -0.512293
     48          6           0        5.086266    0.317117   -0.949920
     49          6           0        5.102098    1.176668   -2.143398
     50          6           0        6.530798    0.389327   -0.244101
     51          6           0        7.754453   -0.216418   -0.951760
     52          6           0        9.034571   -0.077749   -0.099266
     53          6           0       10.260478   -0.483147   -0.803201
     54          6           0       10.174112   -2.020235   -1.319860
     55          6           0       11.558774   -0.229623    0.133794
     56          6           0       12.878900   -0.525366   -0.551267
     57          6           0       14.023606   -0.107292    0.196509
     58          6           0       15.376226   -0.221414   -0.545223
     59          6           0       15.794706   -1.567773   -0.937790
     60          6           0       16.436034    0.446151    0.460224
     61          6           0       17.817428    0.693212   -0.235667
     62          6           0       18.835443    1.409530    0.752616
     63          6           0       20.253746    1.286621    0.150725
     64          6           0       20.289490    1.999502   -1.177833
     65          6           0       21.328269    2.072840    1.125605
     66          1           0       -3.957430    3.383968    1.570114
     67          1           0      -10.244392    3.704311   -0.693847
     68          1           0      -10.226835   -2.322629   -1.448042
     69          1           0       -2.631530   -1.064055    2.155670
     70          1           0       -2.174869    1.638646    1.221856
     71          1           0       -2.208591    0.932409    3.573415
     72          1           0       -2.908731    2.469506    3.463630
     73          1           0       -3.950878    0.915963    3.586987
     74          1           0       -2.445496   -1.559585   -0.318114
     75          1           0       -2.167574   -0.120758   -0.725483
     76          1           0       -0.380562    0.227971    1.039053
     77          1           0       -0.418608   -1.436377    1.635169
     78          1           0       -4.955559    6.151643    0.452965
     79          1           0       -6.185799    6.413790    1.880500
     80          1           0       -4.782274    5.409612    1.900405
     81          1           0       -9.744020    5.980655    0.438232
     82          1           0       -9.124417    8.012499    0.046563
     83          1           0       -7.209096    7.431648   -0.121929
     84          1           0      -11.842011    3.198186   -2.084907
     85          1           0      -13.196538    1.948878   -1.806861
     86          1           0      -12.862452    3.207330   -0.616168
     87          1           0      -12.314295   -1.790901   -1.217659
     88          1           0      -13.464931   -0.490000   -1.300486
     89          1           0      -13.103134   -1.526244   -3.647205
     90          1           0      -12.338958   -0.077125   -3.865843
     91          1           0      -11.306685   -1.330165   -3.401318
     92          1           0       -9.085842   -5.074391   -1.926265
     93          1           0       -7.958713   -5.869406   -0.756236
     94          1           0       -9.472231   -4.834892   -0.261668
     95          1           0       -3.330810   -3.524232   -0.191062
     96          1           0       -1.612714   -4.309633    3.250369
     97          1           0       -2.694483   -5.510906    3.562825
     98          1           0       -1.314328   -5.868732    2.502037
     99          1           0        2.672976   -1.904445   -1.480164
    100          1           0        2.418205    0.063113   -1.847531
    101          1           0        4.390078   -0.992442    0.449930
    102          1           0        4.039699    1.414328   -2.457324
    103          1           0        5.461041    2.174696   -1.902438
    104          1           0        5.833281    0.668452   -2.782475
    105          1           0        6.489461    1.438100   -0.092659
    106          1           0        6.316353   -0.194890    0.650943
    107          1           0        7.570052   -1.217346   -1.190647
    108          1           0        7.933414    0.266447   -2.039897
    109          1           0        9.236107    0.875788    0.499640
    110          1           0        9.001433   -0.850217    0.686671
    111          1           0       10.529311    0.072934   -1.591928
    112          1           0        9.475401   -2.094483   -2.179449
    113          1           0       11.214886   -2.445368   -1.540871
    114          1           0        9.892295   -2.675935   -0.560602
    115          1           0       11.721015    0.762986    0.592307
    116          1           0       11.500282   -0.832583    1.031545
    117          1           0       12.844459   -1.627345   -0.763684
    118          1           0       12.896057    0.244522   -1.604910
    119          1           0       13.779102    0.912175    0.442926
    120          1           0       14.128545   -0.839782    1.096083
    121          1           0       15.492297    0.481785   -1.215678
    122          1           0       16.339897   -2.168930    0.004442
    123          1           0       14.826084   -1.971706   -1.543394
    124          1           0       16.497831   -1.373642   -1.838690
    125          1           0       16.114426    1.373742    0.824489
    126          1           0       16.521157   -0.211705    1.335168
    127          1           0       18.345071   -0.333841   -0.517230
    128          1           0       17.638980    1.259254   -1.039113
    129          1           0       18.515476    2.452259    0.875365
    130          1           0       18.729017    0.801931    1.699579
    131          1           0       20.520565    0.160900    0.081395
    132          1           0       19.949776    3.098665   -0.995136
    133          1           0       21.289408    1.878788   -1.562167
    134          1           0       19.551449    1.414875   -1.902542
    135          1           0       21.467811    1.582900    2.117613
    136          1           0       22.265888    2.075425    0.691826
    137          1           0       20.976899    3.418944    1.245821
 ---------------------------------------------------------------------

 SCF Done:  E(RCAM-B3LYP) =  -2932.68240928     A.U. after   17 cycles

 Excitation energies and oscillator strengths:

 Excited State   1:      Singlet-A      2.0258 eV  612.02 nm  f=0.2648  <S**2>=0.000
     240 -> 243        0.23549
     241 -> 242        0.65940
 This state for optimization and/or second-order correction.
 Total Energy, E(TD-HF/TD-KS) =  -2932.60796209
 Copying the excited state density for this state as the 1-particle RhoCI density.

 The electronic state is 1-A.
 Alpha  occ. eigenvalues --  -46.84063 -19.27240 -19.25233 -19.21147 -19.20909
 Alpha  occ. eigenvalues --  -19.19777 -14.40686 -14.39587 -14.39548 -14.39437
 Alpha  occ. eigenvalues --  -10.39581 -10.38456 -10.35997 -10.33460 -10.30286
 Alpha  occ. eigenvalues --  -10.30258 -10.29832 -10.29776 -10.29442 -10.29386
 Alpha  occ. eigenvalues --  -10.28985 -10.28961 -10.28899 -10.28264 -10.27884
 Alpha  occ. eigenvalues --  -10.27832 -10.27455 -10.27431 -10.27354 -10.27331
 Alpha  occ. eigenvalues --  -10.27226 -10.27202 -10.27182 -10.27160 -10.27128
 Alpha  occ. eigenvalues --  -10.27019 -10.26919 -10.26894 -10.26750 -10.26658
 Alpha  occ. eigenvalues --  -10.26649 -10.26239 -10.26239 -10.26228 -10.26198
 Alpha  occ. eigenvalues --  -10.26098 -10.25815 -10.25785 -10.25782 -10.25758
 Alpha  occ. eigenvalues --  -10.25751 -10.25615 -10.25602 -10.25351 -10.25317
 Alpha  occ. eigenvalues --  -10.25269 -10.25241 -10.25223 -10.25044 -10.25004
 Alpha  occ. eigenvalues --  -10.24926 -10.24811 -10.24710 -10.24116 -10.24099
 Alpha  occ. eigenvalues --   -3.13179  -1.87873  -1.87405  -1.87389  -1.18820
 Alpha  occ. eigenvalues --   -1.16764  -1.10065  -1.09151  -1.07686  -1.04528
 Alpha  occ. eigenvalues --   -1.03746  -1.02930  -1.01373  -0.91517  -0.91379
 Alpha  occ. eigenvalues --   -0.90941  -0.89839  -0.89698  -0.89480  -0.88852
 Alpha  occ. eigenvalues --   -0.88469  -0.88158  -0.87674  -0.86944  -0.86026
 Alpha  occ. eigenvalues --   -0.85334  -0.84679  -0.83831  -0.83234  -0.82878
 Alpha  occ. eigenvalues --   -0.81580  -0.81340  -0.80582  -0.80147  -0.78536
 Alpha  occ. eigenvalues --   -0.77924  -0.77053  -0.76156  -0.75891  -0.75147
 Alpha  occ. eigenvalues --   -0.74777  -0.74162  -0.74013  -0.73695  -0.72389
 Alpha  occ. eigenvalues --   -0.71524  -0.70761  -0.69891  -0.69172  -0.67671
 Alpha  occ. eigenvalues --   -0.67300  -0.66745  -0.65213  -0.64721  -0.64649
 Alpha  occ. eigenvalues --   -0.63922  -0.63852  -0.62304  -0.62170  -0.61760
 Alpha  occ. eigenvalues --   -0.61303  -0.60825  -0.60429  -0.59487  -0.59256
 Alpha  occ. eigenvalues --   -0.58874  -0.58117  -0.57512  -0.56640  -0.56475
 Alpha  occ. eigenvalues --   -0.56154  -0.56081  -0.55612  -0.55357  -0.54936
 Alpha  occ. eigenvalues --   -0.54475  -0.53917  -0.53784  -0.53509  -0.53215
 Alpha  occ. eigenvalues --   -0.53020  -0.52719  -0.52514  -0.52148  -0.52064
 Alpha  occ. eigenvalues --   -0.51716  -0.50881  -0.50651  -0.50412  -0.50301
 Alpha  occ. eigenvalues --   -0.49878  -0.49842  -0.49611  -0.49341  -0.49217
 Alpha  occ. eigenvalues --   -0.48974  -0.48693  -0.48593  -0.48420  -0.48146
 Alpha  occ. eigenvalues --   -0.47823  -0.47628  -0.47350  -0.47325  -0.47178
 Alpha  occ. eigenvalues --   -0.47013  -0.46691  -0.46578  -0.46255  -0.45957
 Alpha  occ. eigenvalues --   -0.45650  -0.45524  -0.45441  -0.44911  -0.44858
 Alpha  occ. eigenvalues --   -0.44672  -0.44481  -0.44232  -0.44015  -0.43843
 Alpha  occ. eigenvalues --   -0.43677  -0.43629  -0.43590  -0.43223  -0.43019
 Alpha  occ. eigenvalues --   -0.42922  -0.42626  -0.42415  -0.42245  -0.42200
 Alpha  occ. eigenvalues --   -0.42152  -0.41746  -0.41617  -0.41450  -0.41337
 Alpha  occ. eigenvalues --   -0.41147  -0.40823  -0.40779  -0.40505  -0.40467
 Alpha  occ. eigenvalues --   -0.40102  -0.39920  -0.39625  -0.39504  -0.39225
 Alpha  occ. eigenvalues --   -0.39040  -0.38705  -0.38488  -0.38150  -0.37709
 Alpha  occ. eigenvalues --   -0.37493  -0.37228  -0.37087  -0.37022  -0.36576
 Alpha  occ. eigenvalues --   -0.36321  -0.36020  -0.35934  -0.35760  -0.35476
 Alpha  occ. eigenvalues --   -0.35019  -0.34978  -0.34705  -0.33562  -0.33234
 Alpha  occ. eigenvalues --   -0.33067  -0.32517  -0.31605  -0.30585  -0.29870
 Alpha  occ. eigenvalues --   -0.29772  -0.29558  -0.28560  -0.27383  -0.23043
 Alpha  occ. eigenvalues --   -0.20658
 Alpha virt. eigenvalues --   -0.06057  -0.02598   0.02035   0.04621   0.05710
 Alpha virt. eigenvalues --    0.06127   0.06489   0.06616   0.06871   0.07184
 Alpha virt. eigenvalues --    0.08552   0.10947   0.11287   0.11339   0.11814

 Mulliken charges:
               1
     1  Mg   0.817579
     2  C    0.068051
     3  C   -0.196062
     4  C   -0.191239
     5  C   -0.212056
     6  N   -0.675861
     7  C    0.298048
     8  C   -0.159322
     9  C   -0.168376
    10  C    0.379375
    11  C   -0.300194
    12  C   -0.195120
    13  C   -0.267324
    14  C    0.599627
    15  O   -0.465712
    16  O   -0.472186
    17  N   -0.734794
    18  C    0.316147
    19  C    0.028277
    20  C    0.055769
    21  C    0.290870
    22  C   -0.389767
    23  C   -0.111802
    24  C   -0.222335
    25  N   -0.635493
    26  C    0.287340
    27  C    0.106472
    28  C    0.056974
    29  C    0.257207
    30  C   -0.427852
    31  C   -0.257703
    32  C   -0.308046
    33  N   -0.697754
    34  C    0.227525
    35  C    0.055539
    36  C   -0.017236
    37  C    0.332262
    38  C   -0.381453
    39  C    0.389481
    40  O   -0.462239
    41  C   -0.343612
    42  C    0.638596
    43  O   -0.506566
    44  O   -0.461007
    45  C   -0.082079
    46  C    0.030439
    47  C   -0.119135
    48  C    0.063362
    49  C   -0.347439
    50  C   -0.204820
    51  C   -0.177827
    52  C   -0.161195
    53  C   -0.047783
    54  C   -0.338834
    55  C   -0.200019
    56  C   -0.151291
    57  C   -0.148098
    58  C   -0.042414
    59  C   -0.294109
    60  C   -0.199722
    61  C   -0.192126
    62  C   -0.154711
    63  C   -0.062708
    64  C   -0.283710
    65  C   -0.285625
    66  H    0.082027
    67  H    0.079872
    68  H    0.084243
    69  H    0.118307
    70  H    0.105792
    71  H    0.114515
    72  H    0.085204
    73  H    0.132484
    74  H    0.112795
    75  H    0.121438
    76  H    0.145067
    77  H    0.129886
    78  H    0.124685
    79  H    0.134359
    80  H    0.116932
    81  H    0.077597
    82  H    0.106351
    83  H    0.098720
    84  H    0.128281
    85  H    0.103491
    86  H    0.099167
    87  H    0.100863
    88  H    0.111280
    89  H    0.111619
    90  H    0.122586
    91  H    0.097450
    92  H    0.127973
    93  H    0.146141
    94  H    0.118158
    95  H    0.159084
    96  H    0.139854
    97  H    0.144326
    98  H    0.137981
    99  H    0.099944
   100  H    0.126917
   101  H    0.081692
   102  H    0.101779
   103  H    0.114380
   104  H    0.131626
   105  H    0.113552
   106  H    0.095317
   107  H    0.119752
   108  H    0.069988
   109  H    0.091956
   110  H    0.095193
   111  H    0.099185
   112  H    0.107905
   113  H    0.095734
   114  H    0.111967
   115  H    0.080921
   116  H    0.086615
   117  H    0.092070
   118  H    0.030797
   119  H    0.089347
   120  H    0.071990
   121  H    0.093258
   122  H    0.092492
   123  H    0.091333
   124  H    0.100908
   125  H    0.092265
   126  H    0.079316
   127  H    0.073630
   128  H    0.106766
   129  H    0.090924
   130  H    0.086679
   131  H    0.081992
   132  H    0.096847
   133  H    0.104831
   134  H    0.088236
   135  H    0.101072
   136  H    0.112711
   137  H    0.035401
 Sum of Mulliken charges =   0.00000

 Dipole moment (field-independent basis, Debye):
    X=              2.7108    Y=              3.1894    Z=              0.5433  Tot=              4.2208
 Quadrupole moment (field-independent basis, Debye-Ang):
   XX=           -338.2205   YY=           -393.3654   ZZ=           -399.8697
   XY=            -19.0135   XZ=             14.0259   YZ=             -5.4940

 Normal termination of Gaussian 09 at Mon Jul  1 12:54:27 2019.
