 Gaussian 09, Revision D.01,
 Gaussian 09:  ES64L-G09RevD.01 24-Apr-2013

 -------------------------------------
 # td=(NStates=1) CAM-B3LYP/6-31G(d,p)
 -------------------------------------

 --
 TD
 --
 Symbolic Z-matrix:
 Charge =  0 Multiplicity = 1

                         Standard orientation:
 ---------------------------------------------------------------------
 Center     Atomic      Atomic             Coordinates (Angstroms)
 Number     Number       Type             X           Y           Z
 ---------------------------------------------------------------------
      1         12           0       -7.209026    0.624778    0.136371
      2          6           0       -4.838921   -1.960150    0.531831
      3          6           0       -4.889823    2.831541    1.131010
      4          6           0       -9.559961    2.972911   -0.285792
      5          6           0       -9.523613   -1.787632   -0.818039
      6          7           0       -5.087067    0.485254    0.670275
      7          6           0       -4.322715   -0.691924    0.855543
      8          6           0       -2.924744   -0.347724    1.397424
      9          6           0       -3.073270    1.135679    1.717922
     10          6           0       -4.376606    1.491106    1.152384
     11          6           0       -2.976207    1.389613    3.172335
     12          6           0       -1.935860   -0.575153    0.224418
     13          6           0       -0.402092   -0.365349    0.496394
     14          6           0        0.476450   -0.643237   -0.647011
     15          8           0        0.280838   -0.945268   -1.761485
     16          8           0        1.758766   -0.353103   -0.231469
     17          7           0       -7.155989    2.607840    0.343453
     18          6           0       -6.110177    3.315953    0.838467
     19          6           0       -6.511482    4.738867    0.716869
     20          6           0       -7.835667    4.900757    0.320216
     21          6           0       -8.246090    3.447432    0.122854
     22          6           0       -5.645097    5.918527    1.236499
     23          6           0       -8.839839    5.935331    0.311182
     24          6           0       -8.426374    7.269906    0.077576
     25          7           0       -9.137171    0.650067   -0.330931
     26          6           0       -9.904801    1.726449   -0.564335
     27          6           0      -11.281707    1.350353   -1.075295
     28          6           0      -11.305062   -0.073807   -1.171689
     29          6           0       -9.973245   -0.464954   -0.818957
     30          6           0      -12.425555    2.253870   -1.349167
     31          6           0      -12.399863   -0.948165   -1.758842
     32          6           0      -12.217129   -1.177181   -3.226008
     33          7           0       -7.258751   -1.394114   -0.056866
     34          6           0       -8.231736   -2.271266   -0.496343
     35          6           0       -7.680692   -3.602001   -0.652255
     36          6           0       -6.404490   -3.495101   -0.207257
     37          6           0       -6.213169   -2.210209    0.167054
     38          6           0       -8.502965   -4.840154   -0.964781
     39          6           0       -5.293488   -4.353215    0.205249
     40          8           0       -5.124661   -5.540248    0.223304
     41          6           0       -4.067983   -3.262142    0.518689
     42          6           0       -3.425471   -3.574672    1.910719
     43          8           0       -3.649937   -3.078261    3.039426
     44          8           0       -2.531998   -4.699613    1.753897
     45          6           0       -1.957104   -5.282811    2.901009
     46          6           0        2.758164   -0.590031   -1.257221
     47          6           0        4.121697   -0.352380   -0.696203
     48          6           0        5.150399    0.431787   -1.127383
     49          6           0        5.073332    1.325229   -2.275690
     50          6           0        6.423046    0.418803   -0.238744
     51          6           0        7.693685   -0.069366   -1.069160
     52          6           0        8.998089   -0.208876   -0.154671
     53          6           0       10.186878   -0.554774   -0.886519
     54          6           0       10.125268   -1.975208   -1.401808
     55          6           0       11.478798   -0.367576   -0.066226
     56          6           0       12.848665   -0.486830   -0.727282
     57          6           0       13.995984   -0.146645    0.218207
     58          6           0       15.360769   -0.287117   -0.494750
     59          6           0       15.588468   -1.768396   -0.734850
     60          6           0       16.502056    0.274130    0.439088
     61          6           0       17.809534    0.680044   -0.238161
     62          6           0       18.765518    1.295143    0.805468
     63          6           0       20.354560    1.322439    0.249631
     64          6           0       20.371285    2.265037   -1.010760
     65          6           0       21.079114    1.962625    1.413212
     66          1           0       -4.255087    3.704882    1.368534
     67          1           0      -10.338259    3.644588   -0.365156
     68          1           0      -10.157506   -2.475183   -0.960915
     69          1           0       -2.645692   -0.741946    2.301656
     70          1           0       -2.218056    1.640863    1.243097
     71          1           0       -2.068353    0.977050    3.965774
     72          1           0       -2.946168    2.442185    3.483251
     73          1           0       -3.860259    0.967058    3.899828
     74          1           0       -2.107598   -1.304635   -0.547957
     75          1           0       -2.479512    0.066029   -0.419513
     76          1           0       -0.005641    0.708170    0.824291
     77          1           0       -0.150987   -1.217533    1.278342
     78          1           0       -5.084540    6.513306    0.370503
     79          1           0       -6.197503    6.760201    1.582007
     80          1           0       -4.900779    5.600447    1.955400
     81          1           0       -9.858380    5.716715    0.383779
     82          1           0       -9.234027    7.974068    0.096695
     83          1           0       -7.254269    7.429325   -0.132224
     84          1           0      -12.179866    3.094369   -2.134694
     85          1           0      -13.274349    1.637569   -1.819862
     86          1           0      -12.761600    2.827448   -0.529490
     87          1           0      -12.245734   -1.865345   -1.102816
     88          1           0      -13.436422   -0.543747   -1.406967
     89          1           0      -13.057524   -1.676328   -3.705759
     90          1           0      -11.952696   -0.192699   -3.659380
     91          1           0      -11.244100   -1.814714   -3.462402
     92          1           0       -8.848328   -4.733788   -2.068966
     93          1           0       -7.982076   -5.809100   -0.755710
     94          1           0       -9.201205   -4.801643   -0.281430
     95          1           0       -3.259402   -3.104639   -0.187155
     96          1           0       -1.291130   -4.449815    3.424347
     97          1           0       -2.848059   -5.483956    3.520199
     98          1           0       -1.427219   -6.301226    2.509372
     99          1           0        2.586767   -1.828790   -1.445968
    100          1           0        2.493630   -0.130424   -2.181336
    101          1           0        4.350692   -1.059152    0.207297
    102          1           0        3.992455    1.314549   -2.754984
    103          1           0        5.382095    2.470102   -1.997503
    104          1           0        5.905105    0.939291   -3.025606
    105          1           0        6.740014    1.312058    0.444371
    106          1           0        6.037738   -0.443271    0.483975
    107          1           0        7.423701   -0.973218   -1.602700
    108          1           0        8.099837    0.444885   -1.968415
    109          1           0        8.926246    0.810087    0.161525
    110          1           0        8.616006   -1.068436    0.586944
    111          1           0       10.327426    0.336020   -1.728784
    112          1           0        9.200217   -2.196382   -1.992906
    113          1           0       11.005125   -2.418597   -2.043117
    114          1           0       10.084401   -2.497862   -0.651850
    115          1           0       11.137984    0.735624    0.370126
    116          1           0       11.333256   -1.077275    0.802472
    117          1           0       12.953229   -1.654574   -1.138996
    118          1           0       12.883726    0.065291   -1.740747
    119          1           0       13.829106    1.027184    0.491227
    120          1           0       13.805505   -0.553363    1.226819
    121          1           0       15.336803    0.320592   -1.604348
    122          1           0       15.561657   -2.317495    0.212920
    123          1           0       14.991600   -2.267607   -1.437544
    124          1           0       16.646217   -1.893930   -1.073131
    125          1           0       16.103368    1.188282    1.062475
    126          1           0       16.498479   -0.513146    1.282582
    127          1           0       18.355678   -0.131699   -0.663557
    128          1           0       17.360821    1.190597   -1.026401
    129          1           0       18.596001    2.310166    0.992170
    130          1           0       18.664823    0.700789    1.716425
    131          1           0       20.668179    0.355009    0.037345
    132          1           0       19.919707    3.294601   -0.793323
    133          1           0       21.411220    2.530891   -1.493393
    134          1           0       19.985973    1.685711   -1.930196
    135          1           0       20.976861    1.355649    2.373104
    136          1           0       22.248713    1.858595    1.146936
    137          1           0       20.816483    3.065647    1.525723
 ---------------------------------------------------------------------

 SCF Done:  E(RCAM-B3LYP) =  -2932.62493279     A.U. after   18 cycles

 Excitation energies and oscillator strengths:

 Excited State   1:      Singlet-A      2.0442 eV  606.52 nm  f=0.2602  <S**2>=0.000
     240 -> 243       -0.22898
     241 -> 242        0.66355
 This state for optimization and/or second-order correction.
 Total Energy, E(TD-HF/TD-KS) =  -2932.54981070
 Copying the excited state density for this state as the 1-particle RhoCI density.

 The electronic state is 1-A.
 Alpha  occ. eigenvalues --  -46.84036 -19.24753 -19.24337 -19.21658 -19.21575
 Alpha  occ. eigenvalues --  -19.21306 -14.43068 -14.39617 -14.39257 -14.39249
 Alpha  occ. eigenvalues --  -10.40106 -10.38737 -10.36031 -10.32476 -10.32017
 Alpha  occ. eigenvalues --  -10.31945 -10.31181 -10.30514 -10.30249 -10.29999
 Alpha  occ. eigenvalues --  -10.29214 -10.28930 -10.28904 -10.28641 -10.28414
 Alpha  occ. eigenvalues --  -10.28353 -10.28348 -10.28327 -10.28300 -10.28292
 Alpha  occ. eigenvalues --  -10.28095 -10.28077 -10.28032 -10.27895 -10.27883
 Alpha  occ. eigenvalues --  -10.27673 -10.27483 -10.27179 -10.27126 -10.27122
 Alpha  occ. eigenvalues --  -10.27039 -10.27012 -10.27007 -10.26987 -10.26867
 Alpha  occ. eigenvalues --  -10.26861 -10.26551 -10.26498 -10.26486 -10.26393
 Alpha  occ. eigenvalues --  -10.26350 -10.26221 -10.26132 -10.26010 -10.25913
 Alpha  occ. eigenvalues --  -10.25783 -10.25757 -10.25725 -10.25360 -10.25358
 Alpha  occ. eigenvalues --  -10.24927 -10.24171 -10.24042 -10.23816 -10.23391
 Alpha  occ. eigenvalues --   -3.13234  -1.87923  -1.87491  -1.87411  -1.18888
 Alpha  occ. eigenvalues --   -1.14386  -1.12312  -1.09739  -1.07211  -1.05343
 Alpha  occ. eigenvalues --   -1.04215  -1.03134  -1.01205  -0.92237  -0.91392
 Alpha  occ. eigenvalues --   -0.91204  -0.90058  -0.89701  -0.89424  -0.89186
 Alpha  occ. eigenvalues --   -0.88171  -0.87510  -0.87474  -0.87045  -0.86520
 Alpha  occ. eigenvalues --   -0.84374  -0.83949  -0.83643  -0.82763  -0.82702
 Alpha  occ. eigenvalues --   -0.81848  -0.80709  -0.80230  -0.79783  -0.78232
 Alpha  occ. eigenvalues --   -0.77644  -0.76972  -0.76221  -0.75528  -0.74852
 Alpha  occ. eigenvalues --   -0.74222  -0.74123  -0.73715  -0.72967  -0.72528
 Alpha  occ. eigenvalues --   -0.71159  -0.70684  -0.69869  -0.68464  -0.68243
 Alpha  occ. eigenvalues --   -0.67453  -0.66238  -0.66141  -0.65030  -0.63867
 Alpha  occ. eigenvalues --   -0.63787  -0.63583  -0.62506  -0.62142  -0.61375
 Alpha  occ. eigenvalues --   -0.61091  -0.61009  -0.59893  -0.59719  -0.59024
 Alpha  occ. eigenvalues --   -0.58714  -0.58242  -0.57253  -0.56774  -0.56451
 Alpha  occ. eigenvalues --   -0.56093  -0.55714  -0.55108  -0.54802  -0.54666
 Alpha  occ. eigenvalues --   -0.54349  -0.53892  -0.53718  -0.52715  -0.52651
 Alpha  occ. eigenvalues --   -0.52446  -0.52339  -0.52118  -0.51729  -0.51669
 Alpha  occ. eigenvalues --   -0.51268  -0.50973  -0.50664  -0.50250  -0.50020
 Alpha  occ. eigenvalues --   -0.49952  -0.49863  -0.49844  -0.49674  -0.49248
 Alpha  occ. eigenvalues --   -0.48906  -0.48629  -0.48481  -0.48457  -0.48185
 Alpha  occ. eigenvalues --   -0.48039  -0.47807  -0.47345  -0.47140  -0.46968
 Alpha  occ. eigenvalues --   -0.46757  -0.46695  -0.46598  -0.46076  -0.45901
 Alpha  occ. eigenvalues --   -0.45748  -0.45616  -0.45405  -0.45064  -0.44963
 Alpha  occ. eigenvalues --   -0.44721  -0.44597  -0.44544  -0.44375  -0.44212
 Alpha  occ. eigenvalues --   -0.44103  -0.43923  -0.43566  -0.43421  -0.43328
 Alpha  occ. eigenvalues --   -0.42967  -0.42895  -0.42720  -0.42626  -0.42269
 Alpha  occ. eigenvalues --   -0.41923  -0.41755  -0.41567  -0.41330  -0.41186
 Alpha  occ. eigenvalues --   -0.41040  -0.40920  -0.40816  -0.40559  -0.40064
 Alpha  occ. eigenvalues --   -0.39965  -0.39746  -0.39581  -0.39468  -0.39413
 Alpha  occ. eigenvalues --   -0.39241  -0.38486  -0.38358  -0.37972  -0.37790
 Alpha  occ. eigenvalues --   -0.37763  -0.37425  -0.37397  -0.36886  -0.36658
 Alpha  occ. eigenvalues --   -0.36353  -0.36213  -0.36066  -0.35545  -0.35190
 Alpha  occ. eigenvalues --   -0.34569  -0.34384  -0.34164  -0.33966  -0.33864
 Alpha  occ. eigenvalues --   -0.33505  -0.32386  -0.32073  -0.31216  -0.30178
 Alpha  occ. eigenvalues --   -0.29907  -0.29231  -0.28015  -0.27415  -0.23307
 Alpha  occ. eigenvalues --   -0.20899
 Alpha virt. eigenvalues --   -0.06469  -0.02966   0.01194   0.02900   0.04744
 Alpha virt. eigenvalues --    0.04952   0.05918   0.06106   0.06483   0.06888
 Alpha virt. eigenvalues --    0.07795   0.10703   0.10847   0.11274   0.11528

 Mulliken charges:
               1
     1  Mg   0.818229
     2  C    0.030082
     3  C   -0.211382
     4  C   -0.197577
     5  C   -0.150843
     6  N   -0.589048
     7  C    0.225218
     8  C   -0.128744
     9  C   -0.139130
    10  C    0.377659
    11  C   -0.323359
    12  C   -0.201644
    13  C   -0.258600
    14  C    0.610745
    15  O   -0.447804
    16  O   -0.502631
    17  N   -0.726155
    18  C    0.375412
    19  C   -0.026942
    20  C    0.057887
    21  C    0.259917
    22  C   -0.385240
    23  C   -0.078627
    24  C   -0.244642
    25  N   -0.705486
    26  C    0.385517
    27  C    0.007042
    28  C    0.035363
    29  C    0.254683
    30  C   -0.385974
    31  C   -0.223966
    32  C   -0.298124
    33  N   -0.699598
    34  C    0.242373
    35  C   -0.021796
    36  C    0.000373
    37  C    0.315250
    38  C   -0.358798
    39  C    0.394100
    40  O   -0.430265
    41  C   -0.308291
    42  C    0.601662
    43  O   -0.473281
    44  O   -0.478900
    45  C   -0.060629
    46  C    0.024247
    47  C   -0.134193
    48  C    0.152825
    49  C   -0.349840
    50  C   -0.222242
    51  C   -0.208704
    52  C   -0.157816
    53  C   -0.057790
    54  C   -0.296493
    55  C   -0.151324
    56  C   -0.159775
    57  C   -0.156696
    58  C   -0.056912
    59  C   -0.302362
    60  C   -0.185219
    61  C   -0.162831
    62  C   -0.177348
    63  C   -0.069277
    64  C   -0.301842
    65  C   -0.286684
    66  H    0.078889
    67  H    0.066936
    68  H    0.052408
    69  H    0.133213
    70  H    0.122145
    71  H    0.088479
    72  H    0.116645
    73  H    0.109084
    74  H    0.126671
    75  H    0.115166
    76  H    0.142270
    77  H    0.144798
    78  H    0.099061
    79  H    0.132356
    80  H    0.118394
    81  H    0.110815
    82  H    0.110567
    83  H    0.110462
    84  H    0.105040
    85  H    0.109317
    86  H    0.131700
    87  H    0.104828
    88  H    0.103019
    89  H    0.114361
    90  H    0.119398
    91  H    0.100622
    92  H    0.113015
    93  H    0.137293
    94  H    0.141099
    95  H    0.162770
    96  H    0.104024
    97  H    0.131184
    98  H    0.117088
    99  H    0.085774
   100  H    0.128380
   101  H    0.086212
   102  H    0.102343
   103  H    0.103676
   104  H    0.114559
   105  H    0.099764
   106  H    0.093041
   107  H    0.099193
   108  H    0.091443
   109  H    0.103238
   110  H    0.080741
   111  H    0.049931
   112  H    0.091819
   113  H    0.087732
   114  H    0.117457
   115  H    0.055994
   116  H    0.080290
   117  H    0.065878
   118  H    0.090674
   119  H    0.066368
   120  H    0.103158
   121  H    0.053039
   122  H    0.101778
   123  H    0.112147
   124  H    0.090411
   125  H    0.075695
   126  H    0.073769
   127  H    0.095419
   128  H    0.106616
   129  H    0.098986
   130  H    0.097365
   131  H    0.096993
   132  H    0.100809
   133  H    0.083737
   134  H    0.098691
   135  H    0.097243
   136  H    0.072437
   137  H    0.100328
 Sum of Mulliken charges =   0.00000

 Dipole moment (field-independent basis, Debye):
    X=             -0.1450    Y=              4.9881    Z=             -0.1264  Tot=              4.9918
 Quadrupole moment (field-independent basis, Debye-Ang):
   XX=           -332.1474   YY=           -392.4867   ZZ=           -401.4842
   XY=            -31.1808   XZ=             10.5167   YZ=              2.1691

 Normal termination of Gaussian 09 at Sat Jun 29 09:03:01 2019.
