 Gaussian 09, Revision D.01,
 Gaussian 09:  ES64L-G09RevD.01 24-Apr-2013

 -------------------------------------
 # td=(NStates=1) CAM-B3LYP/6-31G(d,p)
 -------------------------------------

 --
 TD
 --
 Symbolic Z-matrix:
 Charge =  0 Multiplicity = 1

                         Standard orientation:
 ---------------------------------------------------------------------
 Center     Atomic      Atomic             Coordinates (Angstroms)
 Number     Number       Type             X           Y           Z
 ---------------------------------------------------------------------
      1         12           0       -7.101166    0.656461    0.098085
      2          6           0       -4.818940   -1.905743    0.434297
      3          6           0       -4.806048    2.704950    1.083517
      4          6           0       -9.392924    3.026199   -0.325184
      5          6           0       -9.514238   -1.726213   -0.763346
      6          7           0       -5.005084    0.496026    0.649042
      7          6           0       -4.334028   -0.616268    0.754830
      8          6           0       -2.819451   -0.357425    1.114975
      9          6           0       -2.993092    1.049925    1.617908
     10          6           0       -4.295065    1.529898    1.054432
     11          6           0       -2.819973    1.276262    3.037272
     12          6           0       -1.881498   -0.615877   -0.020363
     13          6           0       -0.429472   -0.374551    0.401630
     14          6           0        0.573085   -0.701201   -0.751573
     15          8           0        0.284897   -0.912992   -1.951655
     16          8           0        1.831979   -0.449473   -0.256252
     17          7           0       -7.108592    2.613803    0.338389
     18          6           0       -6.031333    3.359319    0.772908
     19          6           0       -6.452436    4.757552    0.907846
     20          6           0       -7.747739    4.807664    0.449663
     21          6           0       -8.137696    3.432068    0.166920
     22          6           0       -5.564187    5.820275    1.395384
     23          6           0       -8.561121    5.996923    0.242888
     24          6           0       -8.170065    7.289949   -0.064344
     25          7           0       -9.133207    0.680863   -0.449884
     26          6           0       -9.971737    1.819532   -0.540699
     27          6           0      -11.335534    1.411824   -0.965204
     28          6           0      -11.286452    0.045652   -1.087576
     29          6           0       -9.944822   -0.375375   -0.777580
     30          6           0      -12.370955    2.344647   -1.071268
     31          6           0      -12.499446   -0.741562   -1.483865
     32          6           0      -12.363100   -1.100496   -2.994337
     33          7           0       -7.194462   -1.376578   -0.234651
     34          6           0       -8.283161   -2.190321   -0.482442
     35          6           0       -7.934371   -3.574229   -0.424806
     36          6           0       -6.486753   -3.610029   -0.166458
     37          6           0       -6.119013   -2.205720    0.063624
     38          6           0       -8.654698   -4.856223   -0.811316
     39          6           0       -5.306529   -4.375632    0.227514
     40          8           0       -5.264753   -5.581680    0.234646
     41          6           0       -4.150393   -3.294639    0.488913
     42          6           0       -3.431105   -3.722067    1.843097
     43          8           0       -3.711378   -3.203233    2.958581
     44          8           0       -2.509021   -4.650789    1.633843
     45          6           0       -1.938010   -5.111927    2.797761
     46          6           0        2.833610   -0.583423   -1.234710
     47          6           0        4.082031   -0.451570   -0.619387
     48          6           0        5.178306    0.330605   -1.053753
     49          6           0        5.104842    1.182475   -2.252356
     50          6           0        6.461595    0.395710   -0.241476
     51          6           0        7.631686   -0.040020   -1.166194
     52          6           0        8.815548   -0.072222   -0.224425
     53          6           0       10.119766   -0.586822   -0.944228
     54          6           0       10.069710   -2.029210   -1.334239
     55          6           0       11.399835   -0.298959   -0.007003
     56          6           0       12.660448   -0.543039   -0.805785
     57          6           0       13.945164   -0.224881    0.200962
     58          6           0       15.331409   -0.194369   -0.524417
     59          6           0       15.728793   -1.705169   -0.691189
     60          6           0       16.391030    0.379176    0.572376
     61          6           0       17.760037    0.524541   -0.030957
     62          6           0       18.801371    1.157976    0.829822
     63          6           0       20.199144    1.355120    0.242286
     64          6           0       20.120338    2.252706   -1.010445
     65          6           0       21.045200    1.975596    1.380910
     66          1           0       -4.073336    3.513049    1.522371
     67          1           0      -10.190851    3.856506   -0.470102
     68          1           0      -10.195098   -2.612100   -0.953148
     69          1           0       -2.622150   -1.033621    1.999973
     70          1           0       -2.245703    1.787627    1.009227
     71          1           0       -1.873352    0.926833    3.560136
     72          1           0       -3.143408    2.310072    3.418610
     73          1           0       -3.611522    0.708583    3.389845
     74          1           0       -1.734255   -1.567712   -0.334864
     75          1           0       -2.182171   -0.117485   -0.825392
     76          1           0       -0.172205    0.663861    0.653895
     77          1           0       -0.251829   -1.083893    1.388168
     78          1           0       -4.481111    6.173992    0.843126
     79          1           0       -6.142964    6.748624    1.460072
     80          1           0       -5.068816    5.554172    2.615488
     81          1           0       -9.610734    5.834342    0.329072
     82          1           0       -9.015528    8.000734   -0.052190
     83          1           0       -7.061140    7.463744   -0.452989
     84          1           0      -12.359520    3.208479   -1.761447
     85          1           0      -13.282304    1.791853   -1.360241
     86          1           0      -12.706237    2.901860   -0.258870
     87          1           0      -12.536691   -1.784447   -0.876262
     88          1           0      -13.266089   -0.222553   -1.383381
     89          1           0      -13.051909   -1.731382   -3.236838
     90          1           0      -12.327210   -0.247864   -3.686761
     91          1           0      -11.515947   -1.664773   -3.154034
     92          1           0       -9.234670   -4.769108   -1.773782
     93          1           0       -7.983827   -5.705525   -0.895465
     94          1           0       -9.523533   -5.100335   -0.157030
     95          1           0       -3.514943   -3.337770   -0.363726
     96          1           0       -1.303706   -4.386660    3.381037
     97          1           0       -2.822087   -5.447477    3.553031
     98          1           0       -1.449554   -6.093225    2.631949
     99          1           0        2.613144   -1.689778   -1.876006
    100          1           0        2.793460    0.075567   -2.117928
    101          1           0        4.053181   -1.083732    0.404367
    102          1           0        4.103796    1.362627   -2.629425
    103          1           0        5.601479    2.202579   -2.026667
    104          1           0        5.897278    0.746951   -3.054065
    105          1           0        6.481850    1.359930    0.042134
    106          1           0        6.036662   -0.317642    0.550973
    107          1           0        7.472443   -1.028964   -1.483686
    108          1           0        7.709091    0.750439   -2.055846
    109          1           0        9.000959    0.946804    0.156034
    110          1           0        8.661576   -0.732489    0.852684
    111          1           0       10.093970   -0.106581   -1.861546
    112          1           0        9.168241   -2.263306   -1.817561
    113          1           0       10.962430   -2.314130   -1.871503
    114          1           0       10.268523   -2.677147   -0.400589
    115          1           0       11.197026    0.670345    0.497828
    116          1           0       11.529323   -1.208891    0.836567
    117          1           0       12.733357   -1.491387   -1.071408
    118          1           0       12.593389    0.061367   -1.542320
    119          1           0       13.655289    0.632438    0.635865
    120          1           0       13.738424   -0.626034    1.148115
    121          1           0       15.238390    0.366746   -1.494535
    122          1           0       15.584858   -2.287701    0.197629
    123          1           0       15.054147   -2.189941   -1.556345
    124          1           0       16.767326   -1.961397   -1.073970
    125          1           0       15.857483    1.438959    0.914694
    126          1           0       16.415728   -0.109593    1.432721
    127          1           0       18.213434   -0.441658   -0.176578
    128          1           0       17.807226    1.019798   -0.926327
    129          1           0       18.282647    2.030324    1.255308
    130          1           0       18.848318    0.798407    2.000834
    131          1           0       20.572320    0.364909    0.219165
    132          1           0       19.627849    3.178668   -0.698696
    133          1           0       21.225588    2.622630   -1.554020
    134          1           0       19.573608    1.838631   -1.956563
    135          1           0       21.254951    1.378807    2.247669
    136          1           0       22.004363    2.390446    0.990996
    137          1           0       20.665520    3.115426    1.587083
 ---------------------------------------------------------------------

 SCF Done:  E(RCAM-B3LYP) =  -2932.57176178     A.U. after   18 cycles

 Excitation energies and oscillator strengths:

 Excited State   1:      Singlet-A      2.0472 eV  605.62 nm  f=0.2944  <S**2>=0.000
     240 -> 243        0.24510
     241 -> 242        0.65286
 This state for optimization and/or second-order correction.
 Total Energy, E(TD-HF/TD-KS) =  -2932.49652809
 Copying the excited state density for this state as the 1-particle RhoCI density.

 The electronic state is 1-A.
 Alpha  occ. eigenvalues --  -46.84679 -19.28604 -19.27420 -19.22338 -19.21272
 Alpha  occ. eigenvalues --  -19.20781 -14.41363 -14.39565 -14.39542 -14.38803
 Alpha  occ. eigenvalues --  -10.40593 -10.40537 -10.35566 -10.32469 -10.32017
 Alpha  occ. eigenvalues --  -10.31168 -10.29895 -10.29754 -10.29488 -10.29443
 Alpha  occ. eigenvalues --  -10.29309 -10.29043 -10.28966 -10.28962 -10.28927
 Alpha  occ. eigenvalues --  -10.28841 -10.28399 -10.27956 -10.27782 -10.27653
 Alpha  occ. eigenvalues --  -10.27610 -10.27587 -10.27542 -10.27509 -10.27436
 Alpha  occ. eigenvalues --  -10.27205 -10.27202 -10.26878 -10.26874 -10.26867
 Alpha  occ. eigenvalues --  -10.26818 -10.26731 -10.26586 -10.26553 -10.26535
 Alpha  occ. eigenvalues --  -10.26449 -10.26405 -10.26268 -10.26165 -10.26042
 Alpha  occ. eigenvalues --  -10.25619 -10.25519 -10.25502 -10.25484 -10.25439
 Alpha  occ. eigenvalues --  -10.25344 -10.25278 -10.25116 -10.24991 -10.24910
 Alpha  occ. eigenvalues --  -10.23882 -10.23661 -10.23300 -10.23113 -10.22720
 Alpha  occ. eigenvalues --   -3.13672  -1.88382  -1.87909  -1.87847  -1.20758
 Alpha  occ. eigenvalues --   -1.18278  -1.11872  -1.09000  -1.08151  -1.07001
 Alpha  occ. eigenvalues --   -1.04169  -1.02681  -1.01520  -0.92515  -0.91754
 Alpha  occ. eigenvalues --   -0.91412  -0.90259  -0.89926  -0.89572  -0.89145
 Alpha  occ. eigenvalues --   -0.88696  -0.88243  -0.87678  -0.86825  -0.86500
 Alpha  occ. eigenvalues --   -0.85628  -0.84715  -0.84138  -0.83788  -0.82589
 Alpha  occ. eigenvalues --   -0.81906  -0.81599  -0.80508  -0.80129  -0.78533
 Alpha  occ. eigenvalues --   -0.78286  -0.77218  -0.76102  -0.75980  -0.75141
 Alpha  occ. eigenvalues --   -0.74873  -0.74562  -0.73763  -0.73464  -0.72769
 Alpha  occ. eigenvalues --   -0.72343  -0.71178  -0.70822  -0.68443  -0.67981
 Alpha  occ. eigenvalues --   -0.67314  -0.66963  -0.65826  -0.65574  -0.65351
 Alpha  occ. eigenvalues --   -0.64663  -0.64595  -0.63896  -0.63540  -0.62840
 Alpha  occ. eigenvalues --   -0.62283  -0.61370  -0.60466  -0.59471  -0.59089
 Alpha  occ. eigenvalues --   -0.58395  -0.58132  -0.57917  -0.57539  -0.57389
 Alpha  occ. eigenvalues --   -0.56445  -0.56012  -0.55420  -0.55353  -0.55211
 Alpha  occ. eigenvalues --   -0.55080  -0.54772  -0.54510  -0.54224  -0.53475
 Alpha  occ. eigenvalues --   -0.53259  -0.53025  -0.52674  -0.51737  -0.51686
 Alpha  occ. eigenvalues --   -0.51538  -0.51325  -0.51033  -0.50708  -0.50513
 Alpha  occ. eigenvalues --   -0.50329  -0.50244  -0.50108  -0.50095  -0.49320
 Alpha  occ. eigenvalues --   -0.48960  -0.48890  -0.48433  -0.48299  -0.48171
 Alpha  occ. eigenvalues --   -0.48049  -0.47939  -0.47602  -0.47261  -0.47079
 Alpha  occ. eigenvalues --   -0.46801  -0.46679  -0.46341  -0.46092  -0.45812
 Alpha  occ. eigenvalues --   -0.45370  -0.45316  -0.45287  -0.45038  -0.44929
 Alpha  occ. eigenvalues --   -0.44555  -0.44354  -0.44291  -0.44038  -0.43966
 Alpha  occ. eigenvalues --   -0.43866  -0.43724  -0.43533  -0.43453  -0.43259
 Alpha  occ. eigenvalues --   -0.42986  -0.42734  -0.42489  -0.42408  -0.42367
 Alpha  occ. eigenvalues --   -0.42200  -0.42076  -0.41813  -0.41704  -0.41597
 Alpha  occ. eigenvalues --   -0.41543  -0.41179  -0.40850  -0.40714  -0.40516
 Alpha  occ. eigenvalues --   -0.40450  -0.40121  -0.40030  -0.39846  -0.39835
 Alpha  occ. eigenvalues --   -0.39354  -0.39067  -0.38553  -0.37967  -0.37947
 Alpha  occ. eigenvalues --   -0.37767  -0.37469  -0.37174  -0.37081  -0.36565
 Alpha  occ. eigenvalues --   -0.36554  -0.36332  -0.36145  -0.36080  -0.35848
 Alpha  occ. eigenvalues --   -0.35076  -0.34534  -0.34393  -0.34019  -0.33658
 Alpha  occ. eigenvalues --   -0.33550  -0.32253  -0.31693  -0.31534  -0.30245
 Alpha  occ. eigenvalues --   -0.28904  -0.28100  -0.27715  -0.27157  -0.22926
 Alpha  occ. eigenvalues --   -0.21346
 Alpha virt. eigenvalues --   -0.06833  -0.02826   0.01280   0.03661   0.03994
 Alpha virt. eigenvalues --    0.04957   0.05149   0.06081   0.06454   0.07254
 Alpha virt. eigenvalues --    0.08629   0.10506   0.11206   0.11445   0.11615

 Mulliken charges:
               1
     1  Mg   0.823726
     2  C    0.054703
     3  C   -0.246246
     4  C   -0.201168
     5  C   -0.179886
     6  N   -0.627071
     7  C    0.296098
     8  C   -0.168342
     9  C   -0.130805
    10  C    0.396651
    11  C   -0.306921
    12  C   -0.138872
    13  C   -0.269021
    14  C    0.610095
    15  O   -0.476443
    16  O   -0.458687
    17  N   -0.724414
    18  C    0.286842
    19  C    0.058403
    20  C    0.016932
    21  C    0.329138
    22  C   -0.365412
    23  C   -0.088908
    24  C   -0.252249
    25  N   -0.677223
    26  C    0.272930
    27  C    0.091871
    28  C    0.017643
    29  C    0.301580
    30  C   -0.419163
    31  C   -0.205573
    32  C   -0.316478
    33  N   -0.734372
    34  C    0.340697
    35  C    0.013294
    36  C   -0.015472
    37  C    0.252576
    38  C   -0.384222
    39  C    0.377506
    40  O   -0.452851
    41  C   -0.309067
    42  C    0.609562
    43  O   -0.496517
    44  O   -0.393569
    45  C   -0.098251
    46  C    0.022220
    47  C   -0.125685
    48  C    0.086575
    49  C   -0.362814
    50  C   -0.203880
    51  C   -0.188555
    52  C   -0.162958
    53  C   -0.060702
    54  C   -0.309748
    55  C   -0.190811
    56  C   -0.162927
    57  C   -0.195433
    58  C   -0.057031
    59  C   -0.299898
    60  C   -0.165693
    61  C   -0.159580
    62  C   -0.185283
    63  C   -0.040464
    64  C   -0.300258
    65  C   -0.313273
    66  H    0.067717
    67  H    0.074935
    68  H    0.088849
    69  H    0.120293
    70  H    0.075627
    71  H    0.110956
    72  H    0.106942
    73  H    0.129247
    74  H    0.128146
    75  H    0.126413
    76  H    0.144888
    77  H    0.111846
    78  H    0.095658
    79  H    0.124000
    80  H    0.064668
    81  H    0.092285
    82  H    0.108191
    83  H    0.112214
    84  H    0.123010
    85  H    0.104937
    86  H    0.138249
    87  H    0.086165
    88  H    0.100277
    89  H    0.109697
    90  H    0.109338
    91  H    0.115317
    92  H    0.119182
    93  H    0.158124
    94  H    0.123066
    95  H    0.166871
    96  H    0.126418
    97  H    0.114746
    98  H    0.126677
    99  H    0.082287
   100  H    0.111910
   101  H    0.080061
   102  H    0.122253
   103  H    0.103319
   104  H    0.108638
   105  H    0.119701
   106  H    0.107201
   107  H    0.120984
   108  H    0.092650
   109  H    0.088207
   110  H    0.064313
   111  H    0.089513
   112  H    0.101262
   113  H    0.105740
   114  H    0.086358
   115  H    0.089318
   116  H    0.059156
   117  H    0.113018
   118  H    0.099201
   119  H    0.088250
   120  H    0.086837
   121  H    0.094412
   122  H    0.113830
   123  H    0.070878
   124  H    0.093858
   125  H    0.052161
   126  H    0.108095
   127  H    0.096183
   128  H    0.101080
   129  H    0.084442
   130  H    0.048775
   131  H    0.103170
   132  H    0.119394
   133  H    0.063739
   134  H    0.103370
   135  H    0.116082
   136  H    0.095438
   137  H    0.073123
 Sum of Mulliken charges =   0.00000

 Dipole moment (field-independent basis, Debye):
    X=              0.8674    Y=              3.3386    Z=             -0.2847  Tot=              3.4611
 Quadrupole moment (field-independent basis, Debye-Ang):
   XX=           -329.3406   YY=           -397.6254   ZZ=           -401.2365
   XY=            -12.7241   XZ=              9.6616   YZ=             -3.7060

 Normal termination of Gaussian 09 at Thu Jun 27 18:19:54 2019.
