 Gaussian 09, Revision D.01,
 Gaussian 09:  ES64L-G09RevD.01 24-Apr-2013

 -------------------------------------
 # td=(NStates=1) CAM-B3LYP/6-31G(d,p)
 -------------------------------------

 --
 TD
 --
 Symbolic Z-matrix:
 Charge =  0 Multiplicity = 1

                         Standard orientation:
 ---------------------------------------------------------------------
 Center     Atomic      Atomic             Coordinates (Angstroms)
 Number     Number       Type             X           Y           Z
 ---------------------------------------------------------------------
      1         12           0       -7.123517    0.596583    0.140996
      2          6           0       -4.833398   -1.876471    0.451489
      3          6           0       -4.784094    2.852647    1.063847
      4          6           0       -9.477003    3.053382   -0.306522
      5          6           0       -9.485858   -1.724957   -0.852457
      6          7           0       -5.145840    0.495659    0.709088
      7          6           0       -4.312365   -0.641478    0.789079
      8          6           0       -2.952820   -0.376302    1.224333
      9          6           0       -3.022320    1.130373    1.650767
     10          6           0       -4.480711    1.479472    1.220334
     11          6           0       -3.018056    1.428391    3.231600
     12          6           0       -1.882971   -0.604841    0.017140
     13          6           0       -0.533697   -0.588101    0.597085
     14          6           0        0.416654   -0.669115   -0.558353
     15          8           0        0.148562   -1.041041   -1.693174
     16          8           0        1.800849   -0.271850   -0.186508
     17          7           0       -7.103333    2.611074    0.170302
     18          6           0       -6.106439    3.361232    0.746778
     19          6           0       -6.540226    4.719861    0.900337
     20          6           0       -7.761009    4.784130    0.402674
     21          6           0       -8.193070    3.448188    0.067232
     22          6           0       -5.651187    5.860819    1.490205
     23          6           0       -8.607244    5.951812    0.341461
     24          6           0       -8.259099    7.212370   -0.019016
     25          7           0       -9.126063    0.713880   -0.528684
     26          6           0       -9.874595    1.815256   -0.710746
     27          6           0      -11.213903    1.446059   -1.176339
     28          6           0      -11.224840    0.049962   -1.372892
     29          6           0       -9.949642   -0.359820   -0.993728
     30          6           0      -12.274318    2.407869   -1.329367
     31          6           0      -12.292020   -0.855911   -1.693111
     32          6           0      -12.279203   -1.347377   -3.138976
     33          7           0       -7.254168   -1.379165   -0.154080
     34          6           0       -8.246409   -2.221427   -0.549205
     35          6           0       -7.793052   -3.602664   -0.526649
     36          6           0       -6.499922   -3.591420   -0.052478
     37          6           0       -6.204079   -2.214405    0.156160
     38          6           0       -8.695101   -4.722193   -0.907222
     39          6           0       -5.257609   -4.328424    0.162402
     40          8           0       -5.036762   -5.534744    0.077173
     41          6           0       -4.075058   -3.277876    0.421937
     42          6           0       -3.453745   -3.681297    1.833454
     43          8           0       -3.718254   -3.089952    2.920754
     44          8           0       -2.727621   -4.838804    1.726396
     45          6           0       -2.079064   -5.308265    2.918920
     46          6           0        2.858350   -0.655384   -1.047586
     47          6           0        4.169441   -0.319464   -0.354396
     48          6           0        5.041707    0.447763   -0.823256
     49          6           0        5.140677    1.329560   -2.003149
     50          6           0        6.445512    0.460651   -0.123006
     51          6           0        7.590037   -0.031554   -0.992225
     52          6           0        8.918472   -0.032664   -0.235553
     53          6           0       10.163747   -0.471523   -0.895117
     54          6           0       10.139194   -1.939496   -1.260128
     55          6           0       11.453055   -0.203000    0.048122
     56          6           0       12.707926   -0.405419   -0.724456
     57          6           0       13.922980   -0.175240    0.133296
     58          6           0       15.276151   -0.294973   -0.564888
     59          6           0       15.648426   -1.818386   -0.906407
     60          6           0       16.411856    0.238767    0.448957
     61          6           0       17.802511    0.531224   -0.233441
     62          6           0       18.761033    1.294663    0.738799
     63          6           0       20.234148    1.334549    0.113998
     64          6           0       20.385448    2.252288   -1.125181
     65          6           0       21.327104    1.710086    1.185129
     66          1           0       -4.122608    3.750094    1.267504
     67          1           0      -10.169338    3.676531   -0.225549
     68          1           0      -10.174415   -2.438594   -1.280201
     69          1           0       -2.630783   -1.078368    2.106869
     70          1           0       -2.324311    1.828870    1.183168
     71          1           0       -2.013567    1.178111    3.671518
     72          1           0       -3.258514    2.468577    3.458797
     73          1           0       -3.811590    0.761354    3.805761
     74          1           0       -2.144769   -1.508022   -0.456287
     75          1           0       -2.063017    0.178290   -0.581292
     76          1           0       -0.195091    0.412964    0.875383
     77          1           0       -0.327297   -1.305056    1.361488
     78          1           0       -4.887313    6.224952    0.904432
     79          1           0       -6.338511    6.552146    1.724921
     80          1           0       -5.242456    5.372047    2.378312
     81          1           0       -9.598378    5.789289    0.660775
     82          1           0       -9.030191    8.029593   -0.208533
     83          1           0       -7.258623    7.180739   -0.314394
     84          1           0      -12.011670    2.896307   -2.247301
     85          1           0      -13.254919    1.853417   -1.597425
     86          1           0      -12.448571    2.965297   -0.452877
     87          1           0      -12.184214   -1.742263   -0.970246
     88          1           0      -13.427641   -0.458773   -1.470633
     89          1           0      -13.033221   -2.211129   -3.276225
     90          1           0      -12.372362   -0.549439   -3.801421
     91          1           0      -11.377842   -1.890003   -3.216320
     92          1           0       -8.913441   -4.894270   -2.004405
     93          1           0       -8.258658   -5.779714   -0.644960
     94          1           0       -9.576513   -4.582140   -0.397272
     95          1           0       -3.535649   -3.095222   -0.253153
     96          1           0       -1.412201   -4.530308    3.385516
     97          1           0       -2.776339   -5.673739    3.756216
     98          1           0       -1.483910   -6.038230    2.738641
     99          1           0        2.998065   -1.619827   -1.211525
    100          1           0        2.975345   -0.081051   -2.008695
    101          1           0        4.247253   -0.952788    0.498525
    102          1           0        3.979343    1.445944   -2.369275
    103          1           0        5.678326    2.247558   -1.863962
    104          1           0        5.717891    0.870334   -2.741664
    105          1           0        6.711317    1.399087    0.432910
    106          1           0        6.366470   -0.093763    0.847782
    107          1           0        7.361100   -1.053765   -1.300843
    108          1           0        7.565135    0.901541   -1.856286
    109          1           0        8.878674    1.060563    0.270813
    110          1           0        8.807116   -0.846485    0.477556
    111          1           0       10.052017    0.264755   -1.667243
    112          1           0        9.250384   -2.306612   -1.986906
    113          1           0       11.077420   -2.196537   -1.763388
    114          1           0       10.048772   -2.689630   -0.325936
    115          1           0       11.419021    0.857999    0.487381
    116          1           0       11.533534   -0.802949    0.864246
    117          1           0       12.833467   -1.568587   -1.021807
    118          1           0       12.640068    0.163957   -1.673382
    119          1           0       13.731285    0.861482    0.246626
    120          1           0       13.871760   -0.452919    1.174660
    121          1           0       15.382203    0.378701   -1.329575
    122          1           0       15.340911   -2.329667    0.208477
    123          1           0       15.015444   -2.136881   -1.704235
    124          1           0       16.842375   -2.003576   -1.165193
    125          1           0       16.210446    1.031753    0.992587
    126          1           0       16.512582   -0.172404    1.403063
    127          1           0       18.465557   -0.461695   -0.375815
    128          1           0       17.727140    0.924402   -1.072135
    129          1           0       18.501757    2.343966    0.760605
    130          1           0       18.813933    0.805699    1.792499
    131          1           0       20.554491    0.249708   -0.260451
    132          1           0       19.809789    3.149056   -0.928905
    133          1           0       21.362567    2.491386   -1.318514
    134          1           0       19.607026    1.714704   -1.869102
    135          1           0       21.321909    1.026389    2.246552
    136          1           0       22.447695    1.794005    0.663261
    137          1           0       21.150373    2.833282    1.462928
 ---------------------------------------------------------------------

 SCF Done:  E(RCAM-B3LYP) =  -2932.56814486     A.U. after   18 cycles

 Excitation energies and oscillator strengths:

 Excited State   1:      Singlet-A      2.0289 eV  611.09 nm  f=0.2238  <S**2>=0.000
     240 -> 243        0.25941
     241 -> 242        0.65112
 This state for optimization and/or second-order correction.
 Total Energy, E(TD-HF/TD-KS) =  -2932.49358363
 Copying the excited state density for this state as the 1-particle RhoCI density.

 The electronic state is 1-A.
 Alpha  occ. eigenvalues --  -46.83829 -19.27609 -19.25046 -19.22727 -19.21718
 Alpha  occ. eigenvalues --  -19.20575 -14.41865 -14.39384 -14.39014 -14.38595
 Alpha  occ. eigenvalues --  -10.41042 -10.40398 -10.35888 -10.31075 -10.31066
 Alpha  occ. eigenvalues --  -10.30558 -10.29757 -10.29745 -10.29359 -10.29125
 Alpha  occ. eigenvalues --  -10.28615 -10.28530 -10.28404 -10.28392 -10.28365
 Alpha  occ. eigenvalues --  -10.28364 -10.28087 -10.27910 -10.27697 -10.27477
 Alpha  occ. eigenvalues --  -10.27347 -10.27188 -10.27182 -10.27159 -10.27141
 Alpha  occ. eigenvalues --  -10.26965 -10.26727 -10.26704 -10.26390 -10.26350
 Alpha  occ. eigenvalues --  -10.26265 -10.26232 -10.26197 -10.26143 -10.26117
 Alpha  occ. eigenvalues --  -10.26029 -10.26011 -10.26005 -10.25975 -10.25854
 Alpha  occ. eigenvalues --  -10.25769 -10.25689 -10.25401 -10.25386 -10.25344
 Alpha  occ. eigenvalues --  -10.25258 -10.25130 -10.25010 -10.24839 -10.24814
 Alpha  occ. eigenvalues --  -10.24762 -10.24704 -10.24222 -10.24062 -10.23281
 Alpha  occ. eigenvalues --   -3.12983  -1.87681  -1.87213  -1.87182  -1.17129
 Alpha  occ. eigenvalues --   -1.15327  -1.10429  -1.08672  -1.07747  -1.05402
 Alpha  occ. eigenvalues --   -1.03798  -1.03610  -1.01696  -0.92485  -0.91895
 Alpha  occ. eigenvalues --   -0.91404  -0.90827  -0.89892  -0.89702  -0.89287
 Alpha  occ. eigenvalues --   -0.88071  -0.87809  -0.87707  -0.86712  -0.86285
 Alpha  occ. eigenvalues --   -0.85239  -0.84702  -0.84286  -0.83353  -0.83307
 Alpha  occ. eigenvalues --   -0.81616  -0.81241  -0.80944  -0.79863  -0.78752
 Alpha  occ. eigenvalues --   -0.78391  -0.78134  -0.77267  -0.75855  -0.74955
 Alpha  occ. eigenvalues --   -0.74844  -0.74282  -0.73837  -0.73724  -0.72599
 Alpha  occ. eigenvalues --   -0.71866  -0.70913  -0.69653  -0.68889  -0.68431
 Alpha  occ. eigenvalues --   -0.67531  -0.67279  -0.65750  -0.65447  -0.65324
 Alpha  occ. eigenvalues --   -0.64765  -0.64353  -0.63320  -0.62658  -0.62240
 Alpha  occ. eigenvalues --   -0.61174  -0.60583  -0.60409  -0.59991  -0.59716
 Alpha  occ. eigenvalues --   -0.58931  -0.58453  -0.57979  -0.57865  -0.57318
 Alpha  occ. eigenvalues --   -0.56433  -0.55830  -0.55340  -0.55084  -0.54878
 Alpha  occ. eigenvalues --   -0.54587  -0.54461  -0.53971  -0.53524  -0.53379
 Alpha  occ. eigenvalues --   -0.53143  -0.52767  -0.52445  -0.52006  -0.51700
 Alpha  occ. eigenvalues --   -0.51620  -0.51486  -0.51189  -0.50982  -0.50648
 Alpha  occ. eigenvalues --   -0.50570  -0.50390  -0.50128  -0.49930  -0.49759
 Alpha  occ. eigenvalues --   -0.49585  -0.49430  -0.49307  -0.48884  -0.48659
 Alpha  occ. eigenvalues --   -0.48601  -0.48009  -0.47694  -0.47677  -0.47298
 Alpha  occ. eigenvalues --   -0.47257  -0.46817  -0.46749  -0.46607  -0.46262
 Alpha  occ. eigenvalues --   -0.46002  -0.45830  -0.45492  -0.45317  -0.44917
 Alpha  occ. eigenvalues --   -0.44810  -0.44662  -0.44509  -0.44253  -0.44116
 Alpha  occ. eigenvalues --   -0.43811  -0.43609  -0.43425  -0.43343  -0.42959
 Alpha  occ. eigenvalues --   -0.42823  -0.42785  -0.42524  -0.42429  -0.42322
 Alpha  occ. eigenvalues --   -0.42220  -0.42002  -0.41922  -0.41831  -0.41383
 Alpha  occ. eigenvalues --   -0.41371  -0.41157  -0.41144  -0.40965  -0.40651
 Alpha  occ. eigenvalues --   -0.40365  -0.40135  -0.39671  -0.39570  -0.39563
 Alpha  occ. eigenvalues --   -0.39354  -0.39186  -0.38555  -0.38302  -0.37598
 Alpha  occ. eigenvalues --   -0.37385  -0.37040  -0.36489  -0.36361  -0.36336
 Alpha  occ. eigenvalues --   -0.35936  -0.35801  -0.35587  -0.35318  -0.35135
 Alpha  occ. eigenvalues --   -0.34822  -0.34790  -0.34451  -0.33956  -0.33775
 Alpha  occ. eigenvalues --   -0.33382  -0.32769  -0.32084  -0.31262  -0.30796
 Alpha  occ. eigenvalues --   -0.30390  -0.29750  -0.28414  -0.27197  -0.22996
 Alpha  occ. eigenvalues --   -0.21000
 Alpha virt. eigenvalues --   -0.06222  -0.03084   0.00881   0.04225   0.04567
 Alpha virt. eigenvalues --    0.04998   0.05767   0.06753   0.07176   0.08132
 Alpha virt. eigenvalues --    0.08619   0.11034   0.11153   0.11271   0.11392

 Mulliken charges:
               1
     1  Mg   0.815756
     2  C   -0.040981
     3  C   -0.208778
     4  C   -0.129059
     5  C   -0.187391
     6  N   -0.612344
     7  C    0.309371
     8  C   -0.183750
     9  C   -0.149284
    10  C    0.339232
    11  C   -0.314325
    12  C   -0.165677
    13  C   -0.256479
    14  C    0.589283
    15  O   -0.439688
    16  O   -0.524276
    17  N   -0.704298
    18  C    0.289787
    19  C   -0.018147
    20  C    0.017339
    21  C    0.294317
    22  C   -0.345118
    23  C   -0.091746
    24  C   -0.244434
    25  N   -0.660735
    26  C    0.329567
    27  C   -0.031013
    28  C    0.115495
    29  C    0.238707
    30  C   -0.376025
    31  C   -0.279012
    32  C   -0.296322
    33  N   -0.703837
    34  C    0.302754
    35  C    0.005471
    36  C    0.061448
    37  C    0.256062
    38  C   -0.388343
    39  C    0.345439
    40  O   -0.456810
    41  C   -0.211043
    42  C    0.599376
    43  O   -0.480442
    44  O   -0.436510
    45  C   -0.072025
    46  C    0.042373
    47  C   -0.158469
    48  C    0.164709
    49  C   -0.368905
    50  C   -0.242682
    51  C   -0.153813
    52  C   -0.163654
    53  C   -0.047637
    54  C   -0.313379
    55  C   -0.171933
    56  C   -0.175320
    57  C   -0.193079
    58  C   -0.052311
    59  C   -0.281706
    60  C   -0.189209
    61  C   -0.150647
    62  C   -0.186873
    63  C   -0.050956
    64  C   -0.304759
    65  C   -0.288458
    66  H    0.082345
    67  H    0.040807
    68  H    0.082183
    69  H    0.131271
    70  H    0.112860
    71  H    0.101553
    72  H    0.118538
    73  H    0.114450
    74  H    0.134039
    75  H    0.129621
    76  H    0.151090
    77  H    0.154279
    78  H    0.131322
    79  H    0.127624
    80  H    0.115890
    81  H    0.095350
    82  H    0.115317
    83  H    0.104315
    84  H    0.136508
    85  H    0.099234
    86  H    0.128218
    87  H    0.103159
    88  H    0.081652
    89  H    0.091411
    90  H    0.121488
    91  H    0.114333
    92  H    0.125006
    93  H    0.129308
    94  H    0.135259
    95  H    0.136775
    96  H    0.111149
    97  H    0.124402
    98  H    0.133297
    99  H    0.120848
   100  H    0.086569
   101  H    0.091466
   102  H    0.088826
   103  H    0.125892
   104  H    0.143749
   105  H    0.088416
   106  H    0.082343
   107  H    0.103973
   108  H    0.050007
   109  H    0.067127
   110  H    0.084531
   111  H    0.091165
   112  H    0.085643
   113  H    0.118479
   114  H    0.088338
   115  H    0.078794
   116  H    0.105397
   117  H    0.068343
   118  H    0.095927
   119  H    0.099237
   120  H    0.096458
   121  H    0.093997
   122  H    0.074137
   123  H    0.112077
   124  H    0.090695
   125  H    0.088728
   126  H    0.079436
   127  H    0.070291
   128  H    0.096078
   129  H    0.096584
   130  H    0.089474
   131  H    0.069670
   132  H    0.102600
   133  H    0.118154
   134  H    0.089524
   135  H    0.077698
   136  H    0.074362
   137  H    0.086111
 Sum of Mulliken charges =   0.00000

 Dipole moment (field-independent basis, Debye):
    X=              0.6969    Y=              3.9604    Z=              1.2617  Tot=              4.2146
 Quadrupole moment (field-independent basis, Debye-Ang):
   XX=           -365.0503   YY=           -391.6479   ZZ=           -398.2937
   XY=            -11.7375   XZ=              7.0066   YZ=             -3.7585

 Normal termination of Gaussian 09 at Thu Jun 27 18:35:49 2019.
