 Gaussian 09, Revision D.01,
 Gaussian 09:  ES64L-G09RevD.01 24-Apr-2013

 -------------------------------------
 # td=(NStates=1) CAM-B3LYP/6-31G(d,p)
 -------------------------------------

 --
 TD
 --
 Symbolic Z-matrix:
 Charge =  0 Multiplicity = 1

                         Standard orientation:
 ---------------------------------------------------------------------
 Center     Atomic      Atomic             Coordinates (Angstroms)
 Number     Number       Type             X           Y           Z
 ---------------------------------------------------------------------
      1         12           0       -7.113567    0.729848    0.112146
      2          6           0       -4.898084   -2.000261    0.484975
      3          6           0       -4.755806    2.819095    1.129726
      4          6           0       -9.430932    3.112748   -0.328218
      5          6           0       -9.464164   -1.720271   -0.789398
      6          7           0       -5.036545    0.447958    0.664919
      7          6           0       -4.281598   -0.765893    0.780224
      8          6           0       -2.852878   -0.506636    1.172893
      9          6           0       -2.956693    0.954483    1.628490
     10          6           0       -4.337270    1.491279    1.177287
     11          6           0       -2.815997    1.254651    3.108680
     12          6           0       -1.897336   -0.762314   -0.042487
     13          6           0       -0.452974   -0.432598    0.392582
     14          6           0        0.538757   -0.679300   -0.674464
     15          8           0        0.161708   -1.033385   -1.841526
     16          8           0        1.766769   -0.546910   -0.237859
     17          7           0       -7.107738    2.660501    0.310274
     18          6           0       -6.007688    3.400983    0.773692
     19          6           0       -6.434833    4.732690    0.941771
     20          6           0       -7.660593    4.871872    0.517686
     21          6           0       -8.183690    3.526831    0.094046
     22          6           0       -5.440845    5.870901    1.308367
     23          6           0       -8.598620    6.033777    0.392507
     24          6           0       -8.264279    7.335157    0.027860
     25          7           0       -9.146990    0.699065   -0.444816
     26          6           0       -9.895784    1.834657   -0.559778
     27          6           0      -11.233496    1.483593   -1.093978
     28          6           0      -11.326715    0.065340   -1.098887
     29          6           0       -9.924810   -0.424655   -0.875779
     30          6           0      -12.323542    2.516076   -1.264416
     31          6           0      -12.423947   -0.715373   -1.529549
     32          6           0      -12.486588   -1.098274   -3.045475
     33          7           0       -7.265723   -1.376430   -0.001087
     34          6           0       -8.259088   -2.120403   -0.494290
     35          6           0       -7.873146   -3.563904   -0.496170
     36          6           0       -6.519652   -3.613441   -0.157796
     37          6           0       -6.105186   -2.243688    0.140454
     38          6           0       -8.760090   -4.742178   -0.865462
     39          6           0       -5.335901   -4.339839    0.071424
     40          8           0       -5.220294   -5.606429    0.037929
     41          6           0       -4.196267   -3.332849    0.521392
     42          6           0       -3.642810   -3.707179    1.822050
     43          8           0       -3.764284   -3.064266    2.829024
     44          8           0       -2.824164   -4.904073    1.729955
     45          6           0       -2.217374   -5.289732    2.945588
     46          6           0        2.890742   -0.686950   -1.362925
     47          6           0        4.167564   -0.403102   -0.557116
     48          6           0        5.111229    0.347118   -1.055997
     49          6           0        5.111166    1.139114   -2.338564
     50          6           0        6.427848    0.373651   -0.281458
     51          6           0        7.656875   -0.232038   -1.044790
     52          6           0        8.934225   -0.145817   -0.145966
     53          6           0       10.232121   -0.504756   -0.834231
     54          6           0       10.207085   -1.990570   -1.300491
     55          6           0       11.417967   -0.174357   -0.009915
     56          6           0       12.792573   -0.342977   -0.625246
     57          6           0       14.003105   -0.051108    0.291927
     58          6           0       15.362437   -0.219067   -0.439388
     59          6           0       15.677447   -1.594236   -0.710349
     60          6           0       16.445580    0.399058    0.589612
     61          6           0       17.676768    0.525199   -0.222352
     62          6           0       18.805518    1.225848    0.824007
     63          6           0       20.220077    1.358941    0.265340
     64          6           0       20.357892    2.191536   -1.092423
     65          6           0       21.206811    1.797240    1.297003
     66          1           0       -4.190490    3.330718    1.677804
     67          1           0      -10.108657    4.075981   -0.533049
     68          1           0      -10.193895   -2.415805   -1.036272
     69          1           0       -2.844457   -1.406811    1.874040
     70          1           0       -2.179984    1.691296    1.085561
     71          1           0       -1.786840    0.880159    3.400403
     72          1           0       -3.100122    2.165021    3.614862
     73          1           0       -3.431813    0.515177    3.686038
     74          1           0       -1.903426   -1.710156   -0.222091
     75          1           0       -2.218371   -0.159109   -0.922435
     76          1           0       -0.268805    0.769130    0.686563
     77          1           0       -0.196216   -1.171792    1.193279
     78          1           0       -4.856472    6.486473    0.658032
     79          1           0       -6.038731    6.608855    1.595362
     80          1           0       -4.896237    5.877509    2.258131
     81          1           0       -9.568888    5.856013    0.560505
     82          1           0       -8.923259    7.964476    0.169501
     83          1           0       -7.079589    7.478836    0.058596
     84          1           0      -12.398100    2.972068   -2.224676
     85          1           0      -13.346156    2.037104   -1.178801
     86          1           0      -12.357017    3.153526   -0.485494
     87          1           0      -12.629837   -1.574184   -0.907195
     88          1           0      -13.455196   -0.026969   -1.494183
     89          1           0      -13.252955   -1.722374   -3.223985
     90          1           0      -12.356347   -0.247097   -3.672002
     91          1           0      -11.575518   -1.697394   -3.225292
     92          1           0       -8.910554   -4.588792   -1.934487
     93          1           0       -8.308167   -5.848412   -0.848465
     94          1           0       -9.667647   -4.494677   -0.379180
     95          1           0       -3.411789   -3.464429   -0.382460
     96          1           0       -1.492135   -4.600410    3.206754
     97          1           0       -2.818576   -5.742829    3.464477
     98          1           0       -1.734927   -6.131656    2.706360
     99          1           0        2.573857   -1.725363   -1.707399
    100          1           0        2.506913   -0.073731   -2.146970
    101          1           0        4.463580   -1.058551    0.328949
    102          1           0        4.076847    1.599756   -2.578234
    103          1           0        5.726220    2.071944   -2.361069
    104          1           0        5.447005    0.523254   -3.220973
    105          1           0        6.867187    1.470386   -0.065226
    106          1           0        6.490844    0.150259    0.656652
    107          1           0        7.600519   -1.287692   -1.174314
    108          1           0        7.978165    0.367408   -1.970940
    109          1           0        8.961555    0.852589    0.149901
    110          1           0        8.802096   -0.878420    0.790745
    111          1           0       10.236189    0.297624   -1.649845
    112          1           0        9.344391   -1.976823   -2.020678
    113          1           0       11.039525   -2.226644   -1.744305
    114          1           0       10.006075   -2.621249   -0.489260
    115          1           0       10.971223    0.955478    0.370927
    116          1           0       11.452976   -0.872025    1.062122
    117          1           0       12.743562   -1.550464   -0.910252
    118          1           0       12.856056    0.113167   -1.616165
    119          1           0       13.910010    0.767927    0.764627
    120          1           0       13.827577   -0.758436    1.011348
    121          1           0       15.213520    0.362202   -1.471494
    122          1           0       15.988978   -2.116313    0.315625
    123          1           0       14.847817   -2.066361   -1.316809
    124          1           0       16.519120   -1.431701   -1.510822
    125          1           0       16.035042    1.311433    0.839228
    126          1           0       16.429286   -0.023046    1.626485
    127          1           0       18.017487   -0.494641   -0.527954
    128          1           0       17.809987    1.166364   -1.022468
    129          1           0       18.512884    2.261630    0.899540
    130          1           0       18.899147    0.766121    1.762446
    131          1           0       20.443830    0.341385    0.067044
    132          1           0       20.447262    3.398634   -0.956354
    133          1           0       21.263232    1.927939   -1.467358
    134          1           0       19.542281    1.918129   -2.054299
    135          1           0       21.068778    1.063751    2.120924
    136          1           0       22.114088    1.699582    0.987627
    137          1           0       20.859296    2.831297    1.638475
 ---------------------------------------------------------------------

 SCF Done:  E(RCAM-B3LYP) =  -2932.47230874     A.U. after   18 cycles

 Excitation energies and oscillator strengths:

 Excited State   1:      Singlet-A      1.9585 eV  633.05 nm  f=0.2518  <S**2>=0.000
     240 -> 243        0.26604
     241 -> 242        0.65283
 This state for optimization and/or second-order correction.
 Total Energy, E(TD-HF/TD-KS) =  -2932.40033456
 Copying the excited state density for this state as the 1-particle RhoCI density.

 The electronic state is 1-A.
 Alpha  occ. eigenvalues --  -46.83670 -19.25955 -19.24624 -19.22671 -19.19479
 Alpha  occ. eigenvalues --  -19.19124 -14.41663 -14.39089 -14.38890 -14.38702
 Alpha  occ. eigenvalues --  -10.40044 -10.38124 -10.35019 -10.33696 -10.31601
 Alpha  occ. eigenvalues --  -10.30547 -10.29834 -10.29770 -10.29321 -10.29190
 Alpha  occ. eigenvalues --  -10.29148 -10.28882 -10.28785 -10.28565 -10.28445
 Alpha  occ. eigenvalues --  -10.28347 -10.28340 -10.28096 -10.27896 -10.27799
 Alpha  occ. eigenvalues --  -10.27771 -10.27648 -10.27012 -10.27003 -10.26959
 Alpha  occ. eigenvalues --  -10.26796 -10.26769 -10.26642 -10.26606 -10.26547
 Alpha  occ. eigenvalues --  -10.26540 -10.26500 -10.26470 -10.26280 -10.26209
 Alpha  occ. eigenvalues --  -10.26209 -10.26168 -10.25869 -10.25810 -10.25702
 Alpha  occ. eigenvalues --  -10.25657 -10.25555 -10.25433 -10.25138 -10.25101
 Alpha  occ. eigenvalues --  -10.24996 -10.24718 -10.24679 -10.24597 -10.24439
 Alpha  occ. eigenvalues --  -10.23985 -10.23964 -10.23608 -10.23431 -10.22490
 Alpha  occ. eigenvalues --   -3.12681  -1.87393  -1.86902  -1.86868  -1.16866
 Alpha  occ. eigenvalues --   -1.16112  -1.09554  -1.07545  -1.05279  -1.03176
 Alpha  occ. eigenvalues --   -1.02289  -1.01917  -1.00185  -0.94624  -0.92249
 Alpha  occ. eigenvalues --   -0.91189  -0.90256  -0.89944  -0.89035  -0.88655
 Alpha  occ. eigenvalues --   -0.88493  -0.87757  -0.87400  -0.86769  -0.85934
 Alpha  occ. eigenvalues --   -0.85361  -0.84549  -0.83891  -0.83509  -0.82704
 Alpha  occ. eigenvalues --   -0.82242  -0.81620  -0.81013  -0.80374  -0.78811
 Alpha  occ. eigenvalues --   -0.78566  -0.78250  -0.77326  -0.77145  -0.76396
 Alpha  occ. eigenvalues --   -0.75530  -0.75290  -0.74784  -0.74258  -0.72705
 Alpha  occ. eigenvalues --   -0.71984  -0.71372  -0.70249  -0.69969  -0.69406
 Alpha  occ. eigenvalues --   -0.67732  -0.67710  -0.65933  -0.64836  -0.64584
 Alpha  occ. eigenvalues --   -0.64203  -0.62734  -0.62360  -0.61968  -0.61463
 Alpha  occ. eigenvalues --   -0.61004  -0.60135  -0.59913  -0.59709  -0.58878
 Alpha  occ. eigenvalues --   -0.58772  -0.57991  -0.57556  -0.57326  -0.56788
 Alpha  occ. eigenvalues --   -0.56446  -0.56024  -0.55848  -0.55236  -0.55115
 Alpha  occ. eigenvalues --   -0.54427  -0.54392  -0.53943  -0.53497  -0.53275
 Alpha  occ. eigenvalues --   -0.53157  -0.52989  -0.52868  -0.51778  -0.51678
 Alpha  occ. eigenvalues --   -0.51488  -0.51344  -0.50907  -0.50771  -0.50600
 Alpha  occ. eigenvalues --   -0.50435  -0.50264  -0.50168  -0.50142  -0.49810
 Alpha  occ. eigenvalues --   -0.49600  -0.49529  -0.49382  -0.49115  -0.48808
 Alpha  occ. eigenvalues --   -0.48473  -0.48319  -0.48202  -0.47634  -0.47318
 Alpha  occ. eigenvalues --   -0.46978  -0.46754  -0.46468  -0.46218  -0.45743
 Alpha  occ. eigenvalues --   -0.45589  -0.45413  -0.45057  -0.44958  -0.44875
 Alpha  occ. eigenvalues --   -0.44751  -0.44530  -0.44414  -0.44201  -0.44104
 Alpha  occ. eigenvalues --   -0.44085  -0.43903  -0.43811  -0.43614  -0.43441
 Alpha  occ. eigenvalues --   -0.42999  -0.42910  -0.42786  -0.42387  -0.42354
 Alpha  occ. eigenvalues --   -0.41903  -0.41783  -0.41718  -0.41417  -0.41261
 Alpha  occ. eigenvalues --   -0.40973  -0.40938  -0.40792  -0.40340  -0.40290
 Alpha  occ. eigenvalues --   -0.40131  -0.39941  -0.39737  -0.39410  -0.39276
 Alpha  occ. eigenvalues --   -0.39110  -0.38746  -0.38449  -0.37933  -0.37765
 Alpha  occ. eigenvalues --   -0.37682  -0.37415  -0.36988  -0.36790  -0.36246
 Alpha  occ. eigenvalues --   -0.36171  -0.35766  -0.35698  -0.35341  -0.35079
 Alpha  occ. eigenvalues --   -0.34932  -0.34484  -0.34395  -0.34206  -0.32929
 Alpha  occ. eigenvalues --   -0.32697  -0.32288  -0.31467  -0.31020  -0.30679
 Alpha  occ. eigenvalues --   -0.29677  -0.28818  -0.28546  -0.27114  -0.23420
 Alpha  occ. eigenvalues --   -0.20269
 Alpha virt. eigenvalues --   -0.05951  -0.03564   0.00364   0.03702   0.04323
 Alpha virt. eigenvalues --    0.04557   0.06268   0.06858   0.07149   0.07746
 Alpha virt. eigenvalues --    0.07943   0.10869   0.11223   0.11410   0.11759

 Mulliken charges:
               1
     1  Mg   0.818692
     2  C    0.091289
     3  C   -0.140121
     4  C   -0.183493
     5  C   -0.165312
     6  N   -0.628529
     7  C    0.260986
     8  C   -0.156491
     9  C   -0.148311
    10  C    0.331440
    11  C   -0.321896
    12  C   -0.129805
    13  C   -0.259771
    14  C    0.610353
    15  O   -0.537800
    16  O   -0.485959
    17  N   -0.756577
    18  C    0.301581
    19  C    0.001604
    20  C    0.035582
    21  C    0.295121
    22  C   -0.388425
    23  C   -0.103434
    24  C   -0.197130
    25  N   -0.689862
    26  C    0.330206
    27  C    0.004249
    28  C    0.055442
    29  C    0.246261
    30  C   -0.379741
    31  C   -0.271474
    32  C   -0.299316
    33  N   -0.712989
    34  C    0.369067
    35  C   -0.033218
    36  C    0.125071
    37  C    0.216393
    38  C   -0.363305
    39  C    0.298779
    40  O   -0.488797
    41  C   -0.352230
    42  C    0.651726
    43  O   -0.444769
    44  O   -0.501922
    45  C   -0.037089
    46  C   -0.022513
    47  C   -0.126072
    48  C    0.157631
    49  C   -0.378713
    50  C   -0.225956
    51  C   -0.181046
    52  C   -0.176825
    53  C   -0.063346
    54  C   -0.306069
    55  C   -0.118084
    56  C   -0.190141
    57  C   -0.151390
    58  C   -0.070040
    59  C   -0.273526
    60  C   -0.178483
    61  C   -0.184789
    62  C   -0.191030
    63  C   -0.074315
    64  C   -0.302568
    65  C   -0.287818
    66  H    0.052442
    67  H    0.093585
    68  H    0.076467
    69  H    0.137469
    70  H    0.099599
    71  H    0.102187
    72  H    0.124067
    73  H    0.119807
    74  H    0.115921
    75  H    0.128048
    76  H    0.112476
    77  H    0.131984
    78  H    0.130423
    79  H    0.126746
    80  H    0.106715
    81  H    0.095101
    82  H    0.093961
    83  H    0.087944
    84  H    0.126764
    85  H    0.102163
    86  H    0.130140
    87  H    0.106582
    88  H    0.073975
    89  H    0.116154
    90  H    0.117926
    91  H    0.095600
    92  H    0.136864
    93  H    0.147672
    94  H    0.131762
    95  H    0.174082
    96  H    0.117303
    97  H    0.115332
    98  H    0.116847
    99  H    0.152550
   100  H    0.155813
   101  H    0.111606
   102  H    0.113563
   103  H    0.121977
   104  H    0.133122
   105  H    0.069833
   106  H    0.113289
   107  H    0.111877
   108  H    0.089175
   109  H    0.091560
   110  H    0.067374
   111  H    0.075120
   112  H    0.096317
   113  H    0.111513
   114  H    0.110249
   115  H    0.040223
   116  H    0.039094
   117  H    0.065235
   118  H    0.089295
   119  H    0.096923
   120  H    0.095075
   121  H    0.069346
   122  H    0.092679
   123  H    0.096448
   124  H    0.090096
   125  H    0.103403
   126  H    0.097553
   127  H    0.095827
   128  H    0.113321
   129  H    0.089558
   130  H    0.085996
   131  H    0.089998
   132  H    0.079717
   133  H    0.121078
   134  H    0.063931
   135  H    0.092260
   136  H    0.110875
   137  H    0.092038
 Sum of Mulliken charges =   0.00000

 Dipole moment (field-independent basis, Debye):
    X=              4.1637    Y=              3.8620    Z=              0.5755  Tot=              5.7081
 Quadrupole moment (field-independent basis, Debye-Ang):
   XX=           -331.2413   YY=           -395.3678   ZZ=           -395.3817
   XY=            -19.3719   XZ=              5.2942   YZ=             -1.2211

 Normal termination of Gaussian 09 at Sat Jun 29 15:14:36 2019.
