 Gaussian 09, Revision D.01,
 Gaussian 09:  ES64L-G09RevD.01 24-Apr-2013

 -------------------------------------
 # td=(NStates=1) CAM-B3LYP/6-31G(d,p)
 -------------------------------------

 --
 TD
 --
 Symbolic Z-matrix:
 Charge =  0 Multiplicity = 1

                         Standard orientation:
 ---------------------------------------------------------------------
 Center     Atomic      Atomic             Coordinates (Angstroms)
 Number     Number       Type             X           Y           Z
 ---------------------------------------------------------------------
      1         12           0       -7.197120    0.529097    0.234062
      2          6           0       -4.860055   -1.894419    0.513394
      3          6           0       -4.770023    2.854942    1.097422
      4          6           0       -9.458846    3.176049   -0.381911
      5          6           0       -9.669374   -1.735709   -0.767959
      6          7           0       -5.020127    0.462409    0.726509
      7          6           0       -4.389206   -0.743450    0.743294
      8          6           0       -2.796030   -0.308506    1.157037
      9          6           0       -3.003945    1.092173    1.679097
     10          6           0       -4.327885    1.530356    1.107960
     11          6           0       -3.011212    1.245693    3.196645
     12          6           0       -1.959873   -0.523475   -0.007634
     13          6           0       -0.487847   -0.434939    0.387023
     14          6           0        0.584788   -0.669541   -0.640910
     15          8           0        0.243258   -0.985479   -1.745195
     16          8           0        1.806832   -0.561985   -0.219035
     17          7           0       -7.141922    2.630038    0.379501
     18          6           0       -6.009231    3.375059    0.826169
     19          6           0       -6.303236    4.836947    0.701713
     20          6           0       -7.630579    4.827543    0.315394
     21          6           0       -8.134943    3.488727    0.123609
     22          6           0       -5.380696    5.957435    1.102086
     23          6           0       -8.497006    6.054224    0.281291
     24          6           0       -8.035926    7.302006   -0.231327
     25          7           0       -9.196516    0.692062   -0.379792
     26          6           0       -9.915170    1.841267   -0.516426
     27          6           0      -11.249481    1.496963   -0.889585
     28          6           0      -11.381429    0.114290   -1.088142
     29          6           0       -9.989018   -0.337730   -0.696008
     30          6           0      -12.336670    2.484779   -1.205071
     31          6           0      -12.427937   -0.748044   -1.617457
     32          6           0      -12.312562   -1.286129   -3.023890
     33          7           0       -7.273985   -1.393613   -0.022969
     34          6           0       -8.349741   -2.233746   -0.401625
     35          6           0       -7.952311   -3.626016   -0.556039
     36          6           0       -6.564590   -3.519591   -0.058438
     37          6           0       -6.258968   -2.130344    0.106624
     38          6           0       -8.679347   -4.907274   -0.694771
     39          6           0       -5.382859   -4.300835    0.131237
     40          8           0       -5.378063   -5.529533    0.158786
     41          6           0       -4.142609   -3.308192    0.557852
     42          6           0       -3.565226   -3.651230    1.740881
     43          8           0       -3.755790   -3.111507    2.858989
     44          8           0       -2.627750   -4.656820    1.543723
     45          6           0       -1.939644   -5.134586    2.727339
     46          6           0        2.788624   -0.666286   -1.234261
     47          6           0        4.137935   -0.509524   -0.619030
     48          6           0        5.130987    0.327760   -0.912124
     49          6           0        5.037131    1.128968   -2.197232
     50          6           0        6.417230    0.307882   -0.240155
     51          6           0        7.597971   -0.296564   -1.040351
     52          6           0        8.895883   -0.273903   -0.199054
     53          6           0       10.255804   -0.728173   -0.985292
     54          6           0       10.042449   -2.179466   -1.408862
     55          6           0       11.446351   -0.504861   -0.055239
     56          6           0       12.741774   -0.627136   -0.653299
     57          6           0       13.977552   -0.180820    0.185171
     58          6           0       15.370276   -0.175674   -0.550588
     59          6           0       15.827458   -1.635939   -1.020890
     60          6           0       16.403699    0.370305    0.462668
     61          6           0       17.750127    0.828432   -0.134785
     62          6           0       18.733947    1.274824    0.884222
     63          6           0       20.150172    1.390402    0.304696
     64          6           0       20.293711    2.416459   -0.807744
     65          6           0       21.150159    1.887843    1.435597
     66          1           0       -4.217378    3.618387    1.669457
     67          1           0      -10.154786    4.077038   -0.459176
     68          1           0      -10.214154   -2.505335   -1.159820
     69          1           0       -2.475697   -1.032105    1.943606
     70          1           0       -2.213175    1.765573    1.095406
     71          1           0       -2.112174    0.865397    3.612271
     72          1           0       -3.211371    2.325023    3.653812
     73          1           0       -3.657555    0.522210    3.610755
     74          1           0       -2.185112   -1.421189   -0.489078
     75          1           0       -2.117387    0.279965   -0.782054
     76          1           0       -0.260715    0.533945    0.706951
     77          1           0       -0.398001   -0.974538    1.280861
     78          1           0       -4.815277    6.199161    0.273444
     79          1           0       -5.957400    6.765034    1.463960
     80          1           0       -4.545289    5.496961    1.923974
     81          1           0       -9.569837    6.074614    0.746407
     82          1           0       -8.644533    8.200855   -0.346323
     83          1           0       -6.853800    7.262078   -0.618132
     84          1           0      -12.052875    3.277688   -2.039831
     85          1           0      -13.292765    2.082973   -1.283181
     86          1           0      -12.491737    3.280252   -0.421715
     87          1           0      -12.643193   -1.528245   -0.763099
     88          1           0      -13.394054   -0.081419   -1.433169
     89          1           0      -13.132826   -1.840845   -3.548048
     90          1           0      -12.043923   -0.612549   -3.822104
     91          1           0      -11.525589   -1.962509   -3.237652
     92          1           0       -9.397852   -4.771325   -1.723619
     93          1           0       -8.070062   -5.683207   -0.869591
     94          1           0       -9.437331   -5.048269    0.144047
     95          1           0       -3.519384   -3.301763   -0.305242
     96          1           0       -1.222047   -4.318594    3.127779
     97          1           0       -2.591847   -5.461538    3.499055
     98          1           0       -1.301303   -6.003129    2.284499
     99          1           0        2.736874   -1.715191   -1.603020
    100          1           0        2.549001   -0.006612   -1.943973
    101          1           0        4.133597   -0.952975    0.309701
    102          1           0        4.106169    1.196487   -2.624295
    103          1           0        5.501539    2.282816   -2.126285
    104          1           0        5.862770    0.868920   -2.968357
    105          1           0        6.626545    1.297115    0.244663
    106          1           0        6.427421   -0.113582    0.766645
    107          1           0        7.377718   -1.462333   -1.263909
    108          1           0        7.936083    0.398122   -1.887613
    109          1           0        9.160030    0.604181    0.265250
    110          1           0        8.738253   -0.882397    0.775211
    111          1           0       10.441506   -0.042466   -1.822963
    112          1           0        9.224298   -2.317612   -2.120879
    113          1           0       10.996488   -2.608768   -1.731763
    114          1           0        9.796265   -2.797863   -0.495209
    115          1           0       11.333933    0.374519    0.295581
    116          1           0       11.393716   -1.318430    1.040850
    117          1           0       12.768613   -1.654935   -1.011264
    118          1           0       12.948447   -0.022060   -1.647585
    119          1           0       13.408974    0.837885    0.465757
    120          1           0       14.091679   -0.935691    1.042457
    121          1           0       15.507476    0.431923   -1.265062
    122          1           0       15.517500   -2.384545   -0.311937
    123          1           0       15.256946   -1.605371   -2.063651
    124          1           0       16.957462   -1.594277   -1.383571
    125          1           0       16.131571    1.271266    1.039519
    126          1           0       16.736620   -0.591057    1.234600
    127          1           0       18.242815    0.090488   -0.747731
    128          1           0       17.744931    1.720917   -0.833260
    129          1           0       18.368462    2.361016    1.086081
    130          1           0       18.850430    0.729912    1.880151
    131          1           0       20.711097    0.521546   -0.161981
    132          1           0       20.096438    3.326843   -0.476570
    133          1           0       21.286495    2.455853   -0.949551
    134          1           0       19.830870    2.140723   -1.708062
    135          1           0       21.146511    1.030504    2.206779
    136          1           0       22.096051    1.754763    0.794230
    137          1           0       20.800869    2.871571    1.863015
 ---------------------------------------------------------------------

 SCF Done:  E(RCAM-B3LYP) =  -2932.62430343     A.U. after   18 cycles

 Excitation energies and oscillator strengths:

 Excited State   1:      Singlet-A      1.9774 eV  627.00 nm  f=0.2799  <S**2>=0.000
     240 -> 243        0.19785
     241 -> 242        0.67380
 This state for optimization and/or second-order correction.
 Total Energy, E(TD-HF/TD-KS) =  -2932.55163404
 Copying the excited state density for this state as the 1-particle RhoCI density.

 The electronic state is 1-A.
 Alpha  occ. eigenvalues --  -46.85295 -19.26914 -19.25519 -19.20212 -19.19626
 Alpha  occ. eigenvalues --  -19.19550 -14.41569 -14.40002 -14.39733 -14.39642
 Alpha  occ. eigenvalues --  -10.38535 -10.38279 -10.34720 -10.31613 -10.31592
 Alpha  occ. eigenvalues --  -10.31068 -10.30930 -10.30142 -10.29591 -10.29548
 Alpha  occ. eigenvalues --  -10.29446 -10.29363 -10.29252 -10.28794 -10.28771
 Alpha  occ. eigenvalues --  -10.28764 -10.28588 -10.28336 -10.28088 -10.28073
 Alpha  occ. eigenvalues --  -10.28022 -10.28009 -10.27818 -10.27712 -10.27540
 Alpha  occ. eigenvalues --  -10.27434 -10.27218 -10.27162 -10.27151 -10.26909
 Alpha  occ. eigenvalues --  -10.26851 -10.26773 -10.26740 -10.26675 -10.26331
 Alpha  occ. eigenvalues --  -10.26207 -10.26182 -10.26099 -10.26058 -10.25982
 Alpha  occ. eigenvalues --  -10.25747 -10.25730 -10.25516 -10.25493 -10.25486
 Alpha  occ. eigenvalues --  -10.25415 -10.25406 -10.25403 -10.25396 -10.25065
 Alpha  occ. eigenvalues --  -10.25018 -10.24659 -10.24622 -10.24526 -10.21396
 Alpha  occ. eigenvalues --   -3.14228  -1.88941  -1.88459  -1.88405  -1.20785
 Alpha  occ. eigenvalues --   -1.15688  -1.09966  -1.09615  -1.06784  -1.05447
 Alpha  occ. eigenvalues --   -1.04058  -1.03770  -1.02616  -0.92356  -0.91878
 Alpha  occ. eigenvalues --   -0.91010  -0.90781  -0.90102  -0.89124  -0.88524
 Alpha  occ. eigenvalues --   -0.88439  -0.88147  -0.87555  -0.87203  -0.86595
 Alpha  occ. eigenvalues --   -0.85559  -0.84545  -0.83876  -0.83305  -0.82363
 Alpha  occ. eigenvalues --   -0.82046  -0.81399  -0.80775  -0.80423  -0.78414
 Alpha  occ. eigenvalues --   -0.77863  -0.77165  -0.76282  -0.76194  -0.75958
 Alpha  occ. eigenvalues --   -0.75367  -0.75070  -0.73933  -0.73712  -0.73054
 Alpha  occ. eigenvalues --   -0.72581  -0.71237  -0.70174  -0.69155  -0.67532
 Alpha  occ. eigenvalues --   -0.66593  -0.66266  -0.65257  -0.64918  -0.64690
 Alpha  occ. eigenvalues --   -0.64043  -0.63981  -0.63717  -0.63118  -0.62102
 Alpha  occ. eigenvalues --   -0.61877  -0.61536  -0.60476  -0.59682  -0.59624
 Alpha  occ. eigenvalues --   -0.58815  -0.58516  -0.58329  -0.57948  -0.57368
 Alpha  occ. eigenvalues --   -0.56693  -0.55677  -0.55324  -0.54947  -0.54825
 Alpha  occ. eigenvalues --   -0.54413  -0.54273  -0.53467  -0.53359  -0.53068
 Alpha  occ. eigenvalues --   -0.52814  -0.52583  -0.52481  -0.51952  -0.51780
 Alpha  occ. eigenvalues --   -0.51531  -0.51176  -0.50932  -0.50879  -0.50810
 Alpha  occ. eigenvalues --   -0.50707  -0.50309  -0.50142  -0.49899  -0.49514
 Alpha  occ. eigenvalues --   -0.49395  -0.48933  -0.48750  -0.48426  -0.48159
 Alpha  occ. eigenvalues --   -0.47894  -0.47769  -0.47621  -0.47314  -0.47193
 Alpha  occ. eigenvalues --   -0.47028  -0.46737  -0.46501  -0.46374  -0.46270
 Alpha  occ. eigenvalues --   -0.46092  -0.45934  -0.45908  -0.45645  -0.45395
 Alpha  occ. eigenvalues --   -0.45190  -0.45064  -0.45028  -0.44767  -0.44080
 Alpha  occ. eigenvalues --   -0.43905  -0.43775  -0.43381  -0.43156  -0.43019
 Alpha  occ. eigenvalues --   -0.42879  -0.42861  -0.42750  -0.42554  -0.42203
 Alpha  occ. eigenvalues --   -0.41966  -0.41788  -0.41642  -0.41516  -0.41258
 Alpha  occ. eigenvalues --   -0.41182  -0.41019  -0.40960  -0.40491  -0.40380
 Alpha  occ. eigenvalues --   -0.40300  -0.39996  -0.39873  -0.39471  -0.38713
 Alpha  occ. eigenvalues --   -0.38621  -0.38468  -0.37997  -0.37964  -0.37809
 Alpha  occ. eigenvalues --   -0.37264  -0.37156  -0.36995  -0.36792  -0.36687
 Alpha  occ. eigenvalues --   -0.36312  -0.36242  -0.36015  -0.35319  -0.35041
 Alpha  occ. eigenvalues --   -0.34838  -0.34438  -0.34088  -0.33249  -0.33116
 Alpha  occ. eigenvalues --   -0.32937  -0.32323  -0.32066  -0.31505  -0.29730
 Alpha  occ. eigenvalues --   -0.29336  -0.29048  -0.28098  -0.27691  -0.24009
 Alpha  occ. eigenvalues --   -0.20992
 Alpha virt. eigenvalues --   -0.06944  -0.02850   0.01853   0.03640   0.04821
 Alpha virt. eigenvalues --    0.05537   0.05881   0.06293   0.06786   0.08269
 Alpha virt. eigenvalues --    0.08970   0.10372   0.11038   0.11170   0.11653

 Mulliken charges:
               1
     1  Mg   0.833964
     2  C    0.063228
     3  C   -0.183307
     4  C   -0.182852
     5  C   -0.120000
     6  N   -0.636525
     7  C    0.267978
     8  C   -0.155285
     9  C   -0.140954
    10  C    0.348930
    11  C   -0.315026
    12  C   -0.150981
    13  C   -0.275097
    14  C    0.595621
    15  O   -0.480172
    16  O   -0.451761
    17  N   -0.710412
    18  C    0.275037
    19  C    0.050390
    20  C   -0.039078
    21  C    0.353880
    22  C   -0.358066
    23  C   -0.108575
    24  C   -0.246185
    25  N   -0.692143
    26  C    0.334376
    27  C    0.002859
    28  C    0.057912
    29  C    0.270085
    30  C   -0.380451
    31  C   -0.242801
    32  C   -0.326684
    33  N   -0.750693
    34  C    0.202357
    35  C    0.032867
    36  C   -0.021707
    37  C    0.349599
    38  C   -0.345656
    39  C    0.330736
    40  O   -0.471983
    41  C   -0.312304
    42  C    0.673913
    43  O   -0.509891
    44  O   -0.478563
    45  C   -0.072236
    46  C    0.031091
    47  C   -0.146992
    48  C    0.153465
    49  C   -0.364090
    50  C   -0.243307
    51  C   -0.160398
    52  C   -0.190918
    53  C   -0.067515
    54  C   -0.307450
    55  C   -0.117570
    56  C   -0.189688
    57  C   -0.154000
    58  C   -0.047037
    59  C   -0.311029
    60  C   -0.149210
    61  C   -0.192703
    62  C   -0.148441
    63  C   -0.093145
    64  C   -0.296148
    65  C   -0.301120
    66  H    0.074303
    67  H    0.100568
    68  H    0.094997
    69  H    0.113913
    70  H    0.090504
    71  H    0.117071
    72  H    0.100536
    73  H    0.140915
    74  H    0.124467
    75  H    0.102208
    76  H    0.127690
    77  H    0.126816
    78  H    0.146897
    79  H    0.140522
    80  H    0.086188
    81  H    0.105176
    82  H    0.118726
    83  H    0.088915
    84  H    0.106925
    85  H    0.116908
    86  H    0.103617
    87  H    0.108314
    88  H    0.093049
    89  H    0.107449
    90  H    0.120964
    91  H    0.115914
    92  H    0.073875
    93  H    0.161205
    94  H    0.137416
    95  H    0.180244
    96  H    0.109963
    97  H    0.144649
    98  H    0.118170
    99  H    0.127972
   100  H    0.120870
   101  H    0.092766
   102  H    0.120484
   103  H    0.076938
   104  H    0.116790
   105  H    0.098530
   106  H    0.101083
   107  H    0.100890
   108  H    0.098040
   109  H    0.094640
   110  H    0.074883
   111  H    0.087887
   112  H    0.107052
   113  H    0.099050
   114  H    0.098809
   115  H    0.092191
   116  H    0.025583
   117  H    0.093404
   118  H    0.068140
   119  H    0.076331
   120  H    0.087092
   121  H    0.092125
   122  H    0.119597
   123  H    0.091123
   124  H    0.102397
   125  H    0.091484
   126  H    0.048660
   127  H    0.089662
   128  H    0.087194
   129  H    0.075118
   130  H    0.083205
   131  H    0.081371
   132  H    0.103634
   133  H    0.097264
   134  H    0.101330
   135  H    0.090255
   136  H    0.092982
   137  H    0.105968
 Sum of Mulliken charges =   0.00000

 Dipole moment (field-independent basis, Debye):
    X=              1.7021    Y=              5.5877    Z=              0.0116  Tot=              5.8412
 Quadrupole moment (field-independent basis, Debye-Ang):
   XX=           -341.1217   YY=           -394.4495   ZZ=           -399.7294
   XY=            -20.5857   XZ=             -1.3171   YZ=              1.1382

 Normal termination of Gaussian 09 at Sun Jun 30 15:53:13 2019.
