 Gaussian 09, Revision D.01,
 Gaussian 09:  ES64L-G09RevD.01 24-Apr-2013

 -------------------------------------
 # td=(NStates=1) CAM-B3LYP/6-31G(d,p)
 -------------------------------------

 --
 TD
 --
 Symbolic Z-matrix:
 Charge =  0 Multiplicity = 1

                         Standard orientation:
 ---------------------------------------------------------------------
 Center     Atomic      Atomic             Coordinates (Angstroms)
 Number     Number       Type             X           Y           Z
 ---------------------------------------------------------------------
      1         12           0       -7.042533    0.671088    0.091788
      2          6           0       -4.778260   -1.980410    0.466992
      3          6           0       -4.706276    2.859948    1.217413
      4          6           0       -9.330603    3.207834   -0.335806
      5          6           0       -9.534694   -1.622567   -0.853595
      6          7           0       -5.056502    0.401963    0.779394
      7          6           0       -4.257995   -0.709395    0.809268
      8          6           0       -2.940441   -0.508311    1.244065
      9          6           0       -3.026731    1.009602    1.723617
     10          6           0       -4.298537    1.528292    1.199303
     11          6           0       -3.028255    1.023224    3.216331
     12          6           0       -1.951183   -0.527281    0.152899
     13          6           0       -0.497121   -0.536680    0.563379
     14          6           0        0.471267   -0.727264   -0.637665
     15          8           0        0.248624   -1.105940   -1.702698
     16          8           0        1.735483   -0.322428   -0.189426
     17          7           0       -6.995389    2.613345    0.312330
     18          6           0       -5.888575    3.368450    0.738878
     19          6           0       -6.336325    4.787145    0.774061
     20          6           0       -7.611657    4.819568    0.426456
     21          6           0       -8.011589    3.483208    0.040408
     22          6           0       -5.499155    5.857084    1.417087
     23          6           0       -8.431498    6.072326    0.280460
     24          6           0       -8.035769    7.311355    0.166854
     25          7           0       -9.021473    0.688429   -0.489320
     26          6           0       -9.761772    1.863098   -0.635831
     27          6           0      -11.213943    1.503075   -1.054043
     28          6           0      -11.201509    0.105331   -1.297252
     29          6           0       -9.851605   -0.299194   -0.892070
     30          6           0      -12.214636    2.502780   -1.359494
     31          6           0      -12.329646   -0.699840   -1.673898
     32          6           0      -12.245845   -1.091072   -3.198745
     33          7           0       -7.243794   -1.420990   -0.086249
     34          6           0       -8.297701   -2.231049   -0.572990
     35          6           0       -7.862917   -3.549693   -0.490147
     36          6           0       -6.507805   -3.508014   -0.126102
     37          6           0       -6.180458   -2.215334    0.147426
     38          6           0       -8.660681   -4.761447   -0.847554
     39          6           0       -5.426054   -4.335050    0.111217
     40          8           0       -5.262272   -5.587089    0.139832
     41          6           0       -4.200909   -3.424880    0.551579
     42          6           0       -3.520402   -3.693251    1.838995
     43          8           0       -3.619416   -3.094867    2.883759
     44          8           0       -2.677568   -4.715760    1.726698
     45          6           0       -2.076788   -5.206934    3.005291
     46          6           0        2.770815   -0.588821   -1.308959
     47          6           0        3.983128   -0.451400   -0.563414
     48          6           0        5.080462    0.244518   -0.988438
     49          6           0        5.138281    1.090956   -2.229356
     50          6           0        6.331433    0.404558   -0.129265
     51          6           0        7.526147   -0.133139   -0.953226
     52          6           0        8.869361   -0.284856   -0.157709
     53          6           0       10.146299   -0.618340   -0.904329
     54          6           0       10.026506   -2.091003   -1.502659
     55          6           0       11.376851   -0.344122   -0.020348
     56          6           0       12.712074   -0.555839   -0.738184
     57          6           0       13.872565   -0.195153    0.225530
     58          6           0       15.248163   -0.198846   -0.478028
     59          6           0       15.601748   -1.635202   -0.985069
     60          6           0       16.309102    0.381861    0.478562
     61          6           0       17.701092    0.651594   -0.162568
     62          6           0       18.765205    1.238627    0.707501
     63          6           0       20.169986    1.373774    0.200162
     64          6           0       20.239619    2.297612   -1.046702
     65          6           0       20.897090    1.922725    1.345927
     66          1           0       -3.935326    3.496359    1.540783
     67          1           0       -9.992903    3.837316   -0.578827
     68          1           0      -10.275007   -2.470027   -1.240411
     69          1           0       -2.669540   -1.235651    2.101316
     70          1           0       -2.200056    1.713339    1.643653
     71          1           0       -2.214714    0.684094    3.689230
     72          1           0       -3.022962    2.110723    3.582670
     73          1           0       -3.952038    0.568118    3.748580
     74          1           0       -2.019354   -1.373576   -0.611203
     75          1           0       -2.161480    0.328311   -0.499866
     76          1           0       -0.062484    0.349675    0.811374
     77          1           0       -0.238614   -1.525515    1.276797
     78          1           0       -5.065769    6.583938    0.672743
     79          1           0       -6.077220    6.538667    2.151510
     80          1           0       -4.753712    5.451960    2.007148
     81          1           0       -9.626979    5.842405    0.481675
     82          1           0       -8.697429    8.047607    0.186821
     83          1           0       -6.986860    7.529624   -0.056657
     84          1           0      -11.866827    2.914091   -2.329943
     85          1           0      -13.139950    2.023512   -1.709521
     86          1           0      -12.242585    3.322460   -0.683180
     87          1           0      -12.371466   -1.582832   -1.080175
     88          1           0      -13.286784   -0.387009   -1.577553
     89          1           0      -13.164691   -1.507065   -3.510152
     90          1           0      -12.310378   -0.171603   -3.897506
     91          1           0      -11.381061   -1.620396   -3.365242
     92          1           0       -9.060411   -4.768709   -1.880403
     93          1           0       -8.125158   -5.735119   -0.671572
     94          1           0       -9.496250   -4.956864   -0.189415
     95          1           0       -3.525729   -3.573400   -0.378680
     96          1           0       -1.530580   -4.347797    3.449161
     97          1           0       -2.838542   -5.535522    3.670297
     98          1           0       -1.516441   -5.993643    2.619185
     99          1           0        2.598116   -1.575244   -1.684811
    100          1           0        2.649749    0.072714   -2.246720
    101          1           0        4.203841   -0.829703    0.522460
    102          1           0        4.069047    1.006990   -2.824179
    103          1           0        5.254483    2.236298   -2.003117
    104          1           0        5.910300    0.523387   -3.017915
    105          1           0        6.367314    1.524353   -0.001419
    106          1           0        6.199365   -0.047013    0.919096
    107          1           0        7.327064   -1.180339   -1.549830
    108          1           0        7.566003    0.641098   -1.500098
    109          1           0        9.036711    0.599986    0.540640
    110          1           0        8.732757   -0.997461    0.687509
    111          1           0       10.270084    0.016674   -1.863122
    112          1           0        9.063395   -2.228258   -1.992342
    113          1           0       11.055237   -2.270122   -2.123303
    114          1           0        9.769717   -2.723807   -0.676657
    115          1           0       11.306803    0.579864    0.448492
    116          1           0       11.232572   -1.148807    0.841280
    117          1           0       12.683099   -1.594963   -0.917655
    118          1           0       12.759086    0.278388   -1.582798
    119          1           0       13.800505    0.973443    0.693336
    120          1           0       13.867346   -0.809959    1.020873
    121          1           0       15.384410    0.684124   -1.208631
    122          1           0       15.598087   -2.609824   -0.306425
    123          1           0       14.915955   -1.944628   -1.867129
    124          1           0       16.655527   -1.757385   -1.305930
    125          1           0       15.998439    1.259529    0.899138
    126          1           0       16.210786   -0.243150    1.495204
    127          1           0       18.129598   -0.299457   -0.535895
    128          1           0       17.471035    1.221137   -1.127356
    129          1           0       18.305345    2.246165    1.058065
    130          1           0       18.731254    0.715235    1.702450
    131          1           0       20.342392    0.336523   -0.046075
    132          1           0       19.737315    3.391545   -0.882919
    133          1           0       21.414574    2.527437   -1.329689
    134          1           0       19.791004    1.979504   -1.903853
    135          1           0       21.000905    1.383072    2.258618
    136          1           0       22.058753    2.037004    1.256336
    137          1           0       20.553873    2.939613    1.764606
 ---------------------------------------------------------------------

 SCF Done:  E(RCAM-B3LYP) =  -2932.68411391     A.U. after   18 cycles

 Excitation energies and oscillator strengths:

 Excited State   1:      Singlet-A      2.0320 eV  610.16 nm  f=0.2714  <S**2>=0.000
     240 -> 242       -0.10467
     240 -> 243        0.21768
     241 -> 242        0.65821
 This state for optimization and/or second-order correction.
 Total Energy, E(TD-HF/TD-KS) =  -2932.60944007
 Copying the excited state density for this state as the 1-particle RhoCI density.

 The electronic state is 1-A.
 Alpha  occ. eigenvalues --  -46.83911 -19.24987 -19.24904 -19.21768 -19.19797
 Alpha  occ. eigenvalues --  -19.18074 -14.42125 -14.40287 -14.40044 -14.37787
 Alpha  occ. eigenvalues --  -10.38310 -10.38151 -10.33448 -10.31926 -10.31820
 Alpha  occ. eigenvalues --  -10.31311 -10.30442 -10.30435 -10.30372 -10.29832
 Alpha  occ. eigenvalues --  -10.29029 -10.28797 -10.28640 -10.28015 -10.27902
 Alpha  occ. eigenvalues --  -10.27716 -10.27592 -10.27398 -10.27320 -10.27284
 Alpha  occ. eigenvalues --  -10.27254 -10.27077 -10.26955 -10.26895 -10.26888
 Alpha  occ. eigenvalues --  -10.26883 -10.26855 -10.26766 -10.26689 -10.26582
 Alpha  occ. eigenvalues --  -10.26515 -10.26387 -10.26361 -10.26319 -10.26256
 Alpha  occ. eigenvalues --  -10.26231 -10.26217 -10.26129 -10.25940 -10.25801
 Alpha  occ. eigenvalues --  -10.25785 -10.25686 -10.25628 -10.25546 -10.25493
 Alpha  occ. eigenvalues --  -10.25401 -10.25330 -10.25235 -10.25037 -10.25025
 Alpha  occ. eigenvalues --  -10.24999 -10.24920 -10.24917 -10.24886 -10.23144
 Alpha  occ. eigenvalues --   -3.13002  -1.87707  -1.87253  -1.87174  -1.18336
 Alpha  occ. eigenvalues --   -1.17441  -1.08885  -1.07728  -1.06766  -1.04326
 Alpha  occ. eigenvalues --   -1.03488  -1.02868  -1.01823  -0.91684  -0.91260
 Alpha  occ. eigenvalues --   -0.90793  -0.90554  -0.89806  -0.89745  -0.89686
 Alpha  occ. eigenvalues --   -0.89205  -0.88254  -0.88155  -0.86463  -0.85904
 Alpha  occ. eigenvalues --   -0.85383  -0.84515  -0.83995  -0.83637  -0.83259
 Alpha  occ. eigenvalues --   -0.81957  -0.81405  -0.80671  -0.79302  -0.78632
 Alpha  occ. eigenvalues --   -0.78141  -0.77781  -0.76034  -0.75709  -0.75143
 Alpha  occ. eigenvalues --   -0.74999  -0.74815  -0.74335  -0.73089  -0.72325
 Alpha  occ. eigenvalues --   -0.71652  -0.70896  -0.70429  -0.68893  -0.68522
 Alpha  occ. eigenvalues --   -0.67218  -0.66740  -0.65721  -0.64785  -0.64622
 Alpha  occ. eigenvalues --   -0.64010  -0.63434  -0.62666  -0.61997  -0.61938
 Alpha  occ. eigenvalues --   -0.61841  -0.60671  -0.60160  -0.59542  -0.59206
 Alpha  occ. eigenvalues --   -0.58312  -0.57603  -0.57328  -0.57032  -0.56532
 Alpha  occ. eigenvalues --   -0.56288  -0.55389  -0.55283  -0.55196  -0.54755
 Alpha  occ. eigenvalues --   -0.54463  -0.54358  -0.53707  -0.53510  -0.53136
 Alpha  occ. eigenvalues --   -0.52984  -0.52795  -0.52460  -0.52109  -0.51895
 Alpha  occ. eigenvalues --   -0.51106  -0.51043  -0.50872  -0.50786  -0.50682
 Alpha  occ. eigenvalues --   -0.50454  -0.50247  -0.50059  -0.49864  -0.49721
 Alpha  occ. eigenvalues --   -0.49432  -0.49107  -0.48907  -0.48738  -0.48355
 Alpha  occ. eigenvalues --   -0.48284  -0.47976  -0.47831  -0.47688  -0.47518
 Alpha  occ. eigenvalues --   -0.47080  -0.46572  -0.46442  -0.46069  -0.45924
 Alpha  occ. eigenvalues --   -0.45729  -0.45660  -0.45361  -0.44914  -0.44812
 Alpha  occ. eigenvalues --   -0.44772  -0.44351  -0.44077  -0.43921  -0.43687
 Alpha  occ. eigenvalues --   -0.43595  -0.43333  -0.43043  -0.42941  -0.42807
 Alpha  occ. eigenvalues --   -0.42670  -0.42590  -0.42344  -0.42041  -0.41886
 Alpha  occ. eigenvalues --   -0.41803  -0.41546  -0.41416  -0.41316  -0.41226
 Alpha  occ. eigenvalues --   -0.41096  -0.40957  -0.40724  -0.40546  -0.40081
 Alpha  occ. eigenvalues --   -0.40050  -0.39641  -0.39541  -0.39412  -0.39123
 Alpha  occ. eigenvalues --   -0.38937  -0.38903  -0.38711  -0.38361  -0.38198
 Alpha  occ. eigenvalues --   -0.37574  -0.37397  -0.37219  -0.36784  -0.36569
 Alpha  occ. eigenvalues --   -0.36304  -0.36123  -0.35907  -0.35746  -0.35519
 Alpha  occ. eigenvalues --   -0.35279  -0.35187  -0.34811  -0.33705  -0.33511
 Alpha  occ. eigenvalues --   -0.33089  -0.32907  -0.32371  -0.30658  -0.29291
 Alpha  occ. eigenvalues --   -0.28902  -0.28574  -0.28143  -0.27403  -0.23116
 Alpha  occ. eigenvalues --   -0.21239
 Alpha virt. eigenvalues --   -0.06907  -0.02736   0.01967   0.04478   0.05859
 Alpha virt. eigenvalues --    0.05981   0.06360   0.06696   0.07124   0.07803
 Alpha virt. eigenvalues --    0.08872   0.10758   0.11813   0.11853   0.11986

 Mulliken charges:
               1
     1  Mg   0.822704
     2  C    0.027950
     3  C   -0.198751
     4  C   -0.117364
     5  C   -0.178274
     6  N   -0.654899
     7  C    0.339624
     8  C   -0.172216
     9  C   -0.178504
    10  C    0.362721
    11  C   -0.307416
    12  C   -0.167447
    13  C   -0.243382
    14  C    0.585883
    15  O   -0.424598
    16  O   -0.521097
    17  N   -0.751011
    18  C    0.325000
    19  C    0.000187
    20  C    0.021173
    21  C    0.332631
    22  C   -0.378083
    23  C   -0.055063
    24  C   -0.232459
    25  N   -0.671137
    26  C    0.252299
    27  C   -0.010290
    28  C    0.083819
    29  C    0.317325
    30  C   -0.387204
    31  C   -0.261607
    32  C   -0.320018
    33  N   -0.729733
    34  C    0.248002
    35  C    0.040594
    36  C    0.066264
    37  C    0.314099
    38  C   -0.403020
    39  C    0.297783
    40  O   -0.506307
    41  C   -0.304422
    42  C    0.634443
    43  O   -0.492518
    44  O   -0.464199
    45  C   -0.081639
    46  C   -0.010337
    47  C   -0.101451
    48  C    0.110326
    49  C   -0.347683
    50  C   -0.243088
    51  C   -0.142575
    52  C   -0.197514
    53  C   -0.047881
    54  C   -0.314645
    55  C   -0.169606
    56  C   -0.173669
    57  C   -0.158368
    58  C   -0.039427
    59  C   -0.320900
    60  C   -0.180433
    61  C   -0.180576
    62  C   -0.166745
    63  C   -0.037211
    64  C   -0.292728
    65  C   -0.311417
    66  H    0.087441
    67  H    0.058039
    68  H    0.092314
    69  H    0.146574
    70  H    0.106593
    71  H    0.127495
    72  H    0.079067
    73  H    0.117218
    74  H    0.117062
    75  H    0.109812
    76  H    0.139959
    77  H    0.117088
    78  H    0.117298
    79  H    0.122986
    80  H    0.121086
    81  H    0.069690
    82  H    0.104903
    83  H    0.101857
    84  H    0.131612
    85  H    0.117906
    86  H    0.125989
    87  H    0.115954
    88  H    0.113312
    89  H    0.107902
    90  H    0.092160
    91  H    0.124794
    92  H    0.119880
    93  H    0.143572
    94  H    0.122730
    95  H    0.162369
    96  H    0.130144
    97  H    0.143955
    98  H    0.136396
    99  H    0.144742
   100  H    0.123743
   101  H    0.094335
   102  H    0.077976
   103  H    0.118254
   104  H    0.112144
   105  H    0.102660
   106  H    0.085398
   107  H    0.079414
   108  H    0.124674
   109  H    0.076712
   110  H    0.086395
   111  H    0.068006
   112  H    0.103051
   113  H    0.094368
   114  H    0.103231
   115  H    0.100968
   116  H    0.062975
   117  H    0.116093
   118  H    0.086705
   119  H    0.048623
   120  H    0.107144
   121  H    0.081654
   122  H    0.089966
   123  H    0.097849
   124  H    0.104632
   125  H    0.100504
   126  H    0.056492
   127  H    0.084507
   128  H    0.082652
   129  H    0.068225
   130  H    0.092945
   131  H    0.100676
   132  H    0.081526
   133  H    0.077068
   134  H    0.119022
   135  H    0.111004
   136  H    0.074435
   137  H    0.100158
 Sum of Mulliken charges =   0.00000

 Dipole moment (field-independent basis, Debye):
    X=              0.8347    Y=              6.2881    Z=              0.1320  Tot=              6.3446
 Quadrupole moment (field-independent basis, Debye-Ang):
   XX=           -339.5813   YY=           -394.2884   ZZ=           -395.2285
   XY=            -37.5997   XZ=             17.7210   YZ=             -2.7291

 Normal termination of Gaussian 09 at Sun Jun 30 05:55:15 2019.
