 Gaussian 09, Revision D.01,
 Gaussian 09:  ES64L-G09RevD.01 24-Apr-2013

 -------------------------------------
 # td=(NStates=1) CAM-B3LYP/6-31G(d,p)
 -------------------------------------

 --
 TD
 --
 Symbolic Z-matrix:
 Charge =  0 Multiplicity = 1

                         Standard orientation:
 ---------------------------------------------------------------------
 Center     Atomic      Atomic             Coordinates (Angstroms)
 Number     Number       Type             X           Y           Z
 ---------------------------------------------------------------------
      1         12           0       -7.096922    0.569561    0.223272
      2          6           0       -4.849818   -1.951505    0.543470
      3          6           0       -4.651680    2.867357    1.174461
      4          6           0       -9.316061    3.069396   -0.287286
      5          6           0       -9.442803   -1.711046   -0.901025
      6          7           0       -5.073177    0.441680    0.828707
      7          6           0       -4.354159   -0.703202    0.843790
      8          6           0       -2.951736   -0.392754    1.200612
      9          6           0       -2.963213    1.078545    1.686401
     10          6           0       -4.320020    1.517554    1.177341
     11          6           0       -2.820493    1.146620    3.138230
     12          6           0       -1.913683   -0.669018    0.025577
     13          6           0       -0.546990   -0.455395    0.488526
     14          6           0        0.411773   -0.634954   -0.729096
     15          8           0        0.093380   -0.889404   -1.839944
     16          8           0        1.658917   -0.378566   -0.328766
     17          7           0       -6.978697    2.572451    0.449491
     18          6           0       -5.967535    3.418734    0.911187
     19          6           0       -6.339472    4.747080    0.880913
     20          6           0       -7.677404    4.775797    0.519006
     21          6           0       -8.096528    3.396216    0.229950
     22          6           0       -5.451300    5.820845    1.335330
     23          6           0       -8.538219    5.984159    0.273978
     24          6           0       -8.164489    7.191287    0.017049
     25          7           0       -9.031825    0.623734   -0.473014
     26          6           0       -9.778156    1.761887   -0.625397
     27          6           0      -11.173362    1.472408   -1.078747
     28          6           0      -11.113569    0.136363   -1.259736
     29          6           0       -9.853026   -0.426892   -0.883356
     30          6           0      -12.296266    2.471924   -1.251902
     31          6           0      -12.336137   -0.652957   -1.752716
     32          6           0      -12.254637   -1.052874   -3.199047
     33          7           0       -7.156556   -1.344628   -0.121318
     34          6           0       -8.255708   -2.186639   -0.502789
     35          6           0       -7.832297   -3.566574   -0.490621
     36          6           0       -6.456821   -3.562073   -0.135408
     37          6           0       -6.175985   -2.188976    0.130131
     38          6           0       -8.742077   -4.827635   -0.862449
     39          6           0       -5.275219   -4.355165    0.126061
     40          8           0       -5.110206   -5.545700    0.012971
     41          6           0       -4.222300   -3.341213    0.486775
     42          6           0       -3.577484   -3.702072    1.883995
     43          8           0       -3.778115   -3.140083    2.926675
     44          8           0       -2.706806   -4.731760    1.823547
     45          6           0       -2.094840   -5.193093    3.053888
     46          6           0        2.802786   -0.548529   -1.278020
     47          6           0        4.099227   -0.346133   -0.734516
     48          6           0        5.067289    0.446846   -1.095371
     49          6           0        5.012701    1.381855   -2.191961
     50          6           0        6.364845    0.450416   -0.210622
     51          6           0        7.533690   -0.060301   -1.133865
     52          6           0        8.847680   -0.149996   -0.246191
     53          6           0       10.078138   -0.589232   -0.926125
     54          6           0       10.057998   -2.006482   -1.431435
     55          6           0       11.391445   -0.373337    0.008362
     56          6           0       12.745958   -0.542808   -0.545509
     57          6           0       13.925240   -0.150388    0.266920
     58          6           0       15.291000   -0.298239   -0.449019
     59          6           0       15.454988   -1.748302   -0.904579
     60          6           0       16.345893    0.346720    0.388031
     61          6           0       17.807612    0.404385   -0.268720
     62          6           0       18.738272    1.163072    0.764040
     63          6           0       20.257587    1.312348    0.286577
     64          6           0       20.258578    2.398626   -0.890680
     65          6           0       21.100322    1.835513    1.402640
     66          1           0       -3.680387    3.349442    1.547070
     67          1           0       -9.904102    3.922851   -0.409255
     68          1           0      -10.082031   -2.580430   -1.247952
     69          1           0       -2.460332   -1.004898    2.075218
     70          1           0       -2.333588    1.708156    1.081949
     71          1           0       -1.836549    1.063442    3.654952
     72          1           0       -3.096677    2.163456    3.557745
     73          1           0       -3.621082    0.461188    3.555725
     74          1           0       -2.024451   -1.760701   -0.269936
     75          1           0       -2.128237   -0.156159   -0.916297
     76          1           0       -0.519280    0.464288    1.048703
     77          1           0       -0.293970   -1.178106    1.468541
     78          1           0       -5.072288    6.463990    0.474737
     79          1           0       -6.092875    6.629225    1.881638
     80          1           0       -4.789388    5.462092    2.101582
     81          1           0       -9.633009    5.840047    0.497797
     82          1           0       -8.857250    8.057591   -0.181041
     83          1           0       -7.096193    7.438911   -0.273179
     84          1           0      -12.093011    3.149023   -2.136899
     85          1           0      -13.154383    1.792194   -1.488556
     86          1           0      -12.629984    2.982008   -0.234598
     87          1           0      -12.491673   -1.695894   -1.189711
     88          1           0      -13.233514    0.085442   -1.613487
     89          1           0      -13.162982   -1.700977   -3.591087
     90          1           0      -11.985502   -0.130469   -3.858519
     91          1           0      -11.430438   -1.834924   -3.358928
     92          1           0       -9.387238   -4.583688   -1.891843
     93          1           0       -7.873284   -5.546131   -1.119866
     94          1           0       -9.513492   -4.900670    0.090317
     95          1           0       -3.479266   -3.475398   -0.260124
     96          1           0       -1.375646   -4.410365    3.277720
     97          1           0       -2.933408   -5.350555    3.816034
     98          1           0       -1.720493   -6.213618    2.862080
     99          1           0        2.497231   -1.487395   -1.941363
    100          1           0        2.696455    0.300643   -2.008144
    101          1           0        4.264117   -1.189315    0.087746
    102          1           0        4.022136    1.345583   -2.655744
    103          1           0        5.121246    2.445172   -1.744269
    104          1           0        5.860792    1.080227   -2.726552
    105          1           0        6.713588    1.316548    0.341249
    106          1           0        5.997552   -0.274718    0.580923
    107          1           0        7.366627   -1.141764   -1.367159
    108          1           0        7.769365    0.511655   -1.841661
    109          1           0        9.096676    0.790383    0.098066
    110          1           0        8.760741   -0.756063    0.611076
    111          1           0       10.359654    0.045974   -1.850037
    112          1           0        9.208307   -1.956235   -2.290855
    113          1           0       10.970366   -2.280329   -1.864408
    114          1           0        9.674278   -3.048383   -0.815509
    115          1           0       11.292687    0.742612    0.457802
    116          1           0       11.207713   -0.870592    0.885055
    117          1           0       12.923700   -1.635727   -0.925266
    118          1           0       12.756234   -0.007756   -1.551212
    119          1           0       13.856742    0.727913    0.492856
    120          1           0       13.904077   -0.790716    1.211885
    121          1           0       15.228218    0.328294   -1.411253
    122          1           0       15.085255   -2.406236   -0.196865
    123          1           0       14.847575   -1.873170   -1.832679
    124          1           0       16.569674   -1.863146   -1.415975
    125          1           0       16.066163    1.401624    0.791950
    126          1           0       16.431510   -0.224921    1.496262
    127          1           0       18.114301   -0.594820   -0.711693
    128          1           0       17.651956    1.003435   -1.067257
    129          1           0       18.306197    2.059476    0.852833
    130          1           0       18.830254    0.520501    1.718224
    131          1           0       20.535938    0.272637   -0.195037
    132          1           0       19.743504    3.274098   -0.454552
    133          1           0       21.276786    2.885544   -1.119027
    134          1           0       19.694083    1.974849   -1.923361
    135          1           0       21.168095    1.317660    2.343717
    136          1           0       22.185680    2.040020    1.206143
    137          1           0       20.780789    2.853769    1.699045
 ---------------------------------------------------------------------

 SCF Done:  E(RCAM-B3LYP) =  -2932.71390988     A.U. after   17 cycles

 Excitation energies and oscillator strengths:

 Excited State   1:      Singlet-A      2.0917 eV  592.73 nm  f=0.2449  <S**2>=0.000
     240 -> 242       -0.12083
     240 -> 243        0.24916
     241 -> 242        0.64070
 This state for optimization and/or second-order correction.
 Total Energy, E(TD-HF/TD-KS) =  -2932.63703975
 Copying the excited state density for this state as the 1-particle RhoCI density.

 The electronic state is 1-A.
 Alpha  occ. eigenvalues --  -46.82889 -19.25368 -19.24957 -19.20966 -19.20199
 Alpha  occ. eigenvalues --  -19.19764 -14.40823 -14.39704 -14.39167 -14.38800
 Alpha  occ. eigenvalues --  -10.38992 -10.38765 -10.34293 -10.32427 -10.31491
 Alpha  occ. eigenvalues --  -10.30240 -10.30216 -10.30141 -10.29935 -10.29388
 Alpha  occ. eigenvalues --  -10.29117 -10.29100 -10.28362 -10.28211 -10.28200
 Alpha  occ. eigenvalues --  -10.28065 -10.27988 -10.27795 -10.27771 -10.27694
 Alpha  occ. eigenvalues --  -10.27575 -10.27542 -10.27457 -10.27146 -10.27101
 Alpha  occ. eigenvalues --  -10.27086 -10.26969 -10.26923 -10.26775 -10.26699
 Alpha  occ. eigenvalues --  -10.26659 -10.26655 -10.26573 -10.26496 -10.26385
 Alpha  occ. eigenvalues --  -10.26349 -10.26346 -10.26224 -10.26184 -10.26155
 Alpha  occ. eigenvalues --  -10.26082 -10.26050 -10.25990 -10.25983 -10.25889
 Alpha  occ. eigenvalues --  -10.25597 -10.25481 -10.25452 -10.25282 -10.25222
 Alpha  occ. eigenvalues --  -10.25076 -10.24876 -10.24567 -10.24046 -10.23356
 Alpha  occ. eigenvalues --   -3.12191  -1.86881  -1.86463  -1.86363  -1.17985
 Alpha  occ. eigenvalues --   -1.17463  -1.11170  -1.09576  -1.08318  -1.04509
 Alpha  occ. eigenvalues --   -1.03354  -1.02702  -1.01810  -0.92823  -0.92731
 Alpha  occ. eigenvalues --   -0.91283  -0.90047  -0.89845  -0.89172  -0.88992
 Alpha  occ. eigenvalues --   -0.88333  -0.88077  -0.87910  -0.87127  -0.85854
 Alpha  occ. eigenvalues --   -0.85378  -0.84414  -0.83749  -0.83218  -0.82613
 Alpha  occ. eigenvalues --   -0.82031  -0.80812  -0.80632  -0.80111  -0.77794
 Alpha  occ. eigenvalues --   -0.77425  -0.76953  -0.76685  -0.76027  -0.75835
 Alpha  occ. eigenvalues --   -0.74949  -0.74818  -0.74202  -0.73582  -0.72420
 Alpha  occ. eigenvalues --   -0.71478  -0.70490  -0.68840  -0.68264  -0.68014
 Alpha  occ. eigenvalues --   -0.67634  -0.66260  -0.65251  -0.64975  -0.64539
 Alpha  occ. eigenvalues --   -0.63136  -0.63113  -0.62850  -0.62426  -0.61665
 Alpha  occ. eigenvalues --   -0.61383  -0.60404  -0.59777  -0.59489  -0.58886
 Alpha  occ. eigenvalues --   -0.58258  -0.57898  -0.57531  -0.57173  -0.56764
 Alpha  occ. eigenvalues --   -0.56107  -0.55889  -0.55462  -0.55076  -0.54838
 Alpha  occ. eigenvalues --   -0.54378  -0.54014  -0.53587  -0.53332  -0.53209
 Alpha  occ. eigenvalues --   -0.53192  -0.52580  -0.52027  -0.51896  -0.51652
 Alpha  occ. eigenvalues --   -0.51360  -0.51230  -0.50965  -0.50860  -0.50469
 Alpha  occ. eigenvalues --   -0.50322  -0.50244  -0.50108  -0.49676  -0.49447
 Alpha  occ. eigenvalues --   -0.49397  -0.49154  -0.48872  -0.48683  -0.48491
 Alpha  occ. eigenvalues --   -0.48084  -0.48021  -0.47391  -0.47313  -0.47180
 Alpha  occ. eigenvalues --   -0.46820  -0.46740  -0.46495  -0.46380  -0.45801
 Alpha  occ. eigenvalues --   -0.45723  -0.45435  -0.45230  -0.45085  -0.44941
 Alpha  occ. eigenvalues --   -0.44722  -0.44652  -0.44356  -0.44251  -0.44114
 Alpha  occ. eigenvalues --   -0.43889  -0.43593  -0.43484  -0.43291  -0.43054
 Alpha  occ. eigenvalues --   -0.42994  -0.42656  -0.42626  -0.42351  -0.42086
 Alpha  occ. eigenvalues --   -0.41994  -0.41552  -0.41452  -0.41159  -0.41020
 Alpha  occ. eigenvalues --   -0.40550  -0.40539  -0.40378  -0.40105  -0.39951
 Alpha  occ. eigenvalues --   -0.39668  -0.39606  -0.39511  -0.39156  -0.38954
 Alpha  occ. eigenvalues --   -0.38893  -0.38583  -0.38330  -0.38260  -0.37396
 Alpha  occ. eigenvalues --   -0.37358  -0.37082  -0.37018  -0.36944  -0.36845
 Alpha  occ. eigenvalues --   -0.36661  -0.36103  -0.35859  -0.35778  -0.35318
 Alpha  occ. eigenvalues --   -0.35108  -0.34846  -0.34571  -0.34359  -0.33381
 Alpha  occ. eigenvalues --   -0.33171  -0.33077  -0.32545  -0.30762  -0.30533
 Alpha  occ. eigenvalues --   -0.30066  -0.29691  -0.28676  -0.27866  -0.23083
 Alpha  occ. eigenvalues --   -0.21437
 Alpha virt. eigenvalues --   -0.06476  -0.02855   0.01968   0.05153   0.05322
 Alpha virt. eigenvalues --    0.06258   0.06807   0.07237   0.07412   0.08134
 Alpha virt. eigenvalues --    0.08731   0.10361   0.11201   0.11519   0.11833

 Mulliken charges:
               1
     1  Mg   0.808391
     2  C    0.084687
     3  C   -0.192320
     4  C   -0.157560
     5  C   -0.180968
     6  N   -0.656921
     7  C    0.351833
     8  C   -0.196608
     9  C   -0.141463
    10  C    0.315334
    11  C   -0.308466
    12  C   -0.170871
    13  C   -0.266633
    14  C    0.621041
    15  O   -0.455090
    16  O   -0.492770
    17  N   -0.716006
    18  C    0.288862
    19  C    0.052755
    20  C   -0.019159
    21  C    0.333434
    22  C   -0.383916
    23  C   -0.051551
    24  C   -0.258838
    25  N   -0.691519
    26  C    0.273753
    27  C    0.035779
    28  C    0.018480
    29  C    0.318399
    30  C   -0.359876
    31  C   -0.228965
    32  C   -0.289147
    33  N   -0.744478
    34  C    0.274463
    35  C   -0.022822
    36  C    0.013844
    37  C    0.298060
    38  C   -0.342884
    39  C    0.366096
    40  O   -0.460294
    41  C   -0.324514
    42  C    0.605896
    43  O   -0.464157
    44  O   -0.464535
    45  C   -0.076947
    46  C    0.008403
    47  C   -0.131046
    48  C    0.130097
    49  C   -0.348156
    50  C   -0.230353
    51  C   -0.180554
    52  C   -0.184034
    53  C   -0.066580
    54  C   -0.287596
    55  C   -0.173310
    56  C   -0.180281
    57  C   -0.135268
    58  C   -0.055744
    59  C   -0.304422
    60  C   -0.163672
    61  C   -0.197545
    62  C   -0.153575
    63  C   -0.052758
    64  C   -0.302368
    65  C   -0.315173
    66  H    0.085181
    67  H    0.083304
    68  H    0.095284
    69  H    0.113083
    70  H    0.111362
    71  H    0.113157
    72  H    0.094640
    73  H    0.130231
    74  H    0.106920
    75  H    0.126919
    76  H    0.137489
    77  H    0.100988
    78  H    0.122828
    79  H    0.112470
    80  H    0.125936
    81  H    0.094797
    82  H    0.105513
    83  H    0.095463
    84  H    0.130359
    85  H    0.108678
    86  H    0.117416
    87  H    0.088397
    88  H    0.089743
    89  H    0.091481
    90  H    0.100016
    91  H    0.097474
    92  H    0.101342
    93  H    0.157738
    94  H    0.129539
    95  H    0.169746
    96  H    0.130018
    97  H    0.130407
    98  H    0.132379
    99  H    0.127239
   100  H    0.098635
   101  H    0.074334
   102  H    0.113919
   103  H    0.114049
   104  H    0.132322
   105  H    0.110836
   106  H    0.105034
   107  H    0.112864
   108  H    0.111393
   109  H    0.094496
   110  H    0.101851
   111  H    0.075640
   112  H    0.073829
   113  H    0.115924
   114  H    0.069363
   115  H    0.049853
   116  H    0.099976
   117  H    0.075954
   118  H    0.076091
   119  H    0.090996
   120  H    0.080279
   121  H    0.071623
   122  H    0.118331
   123  H    0.108715
   124  H    0.074980
   125  H    0.082103
   126  H    0.049199
   127  H    0.090269
   128  H    0.109556
   129  H    0.102386
   130  H    0.087398
   131  H    0.079848
   132  H    0.098981
   133  H    0.093838
   134  H    0.080461
   135  H    0.105762
   136  H    0.096463
   137  H    0.097020
 Sum of Mulliken charges =   0.00000

 Dipole moment (field-independent basis, Debye):
    X=              2.2689    Y=              5.2133    Z=              0.7111  Tot=              5.7300
 Quadrupole moment (field-independent basis, Debye-Ang):
   XX=           -343.2453   YY=           -391.1999   ZZ=           -398.4751
   XY=            -16.1656   XZ=              7.1795   YZ=             -3.2373

 Normal termination of Gaussian 09 at Sun Jun 30 11:06:28 2019.
