 Gaussian 09, Revision D.01,
 Gaussian 09:  ES64L-G09RevD.01 24-Apr-2013

 -------------------------------------
 # td=(NStates=1) CAM-B3LYP/6-31G(d,p)
 -------------------------------------

 --
 TD
 --
 Symbolic Z-matrix:
 Charge =  0 Multiplicity = 1

                         Standard orientation:
 ---------------------------------------------------------------------
 Center     Atomic      Atomic             Coordinates (Angstroms)
 Number     Number       Type             X           Y           Z
 ---------------------------------------------------------------------
      1         12           0       -7.186534    0.495942    0.047387
      2          6           0       -4.799252   -1.963481    0.513249
      3          6           0       -4.857198    2.860824    1.172717
      4          6           0       -9.472242    3.032072   -0.433527
      5          6           0       -9.579556   -1.778729   -0.907842
      6          7           0       -5.123036    0.494316    0.752174
      7          6           0       -4.375451   -0.697122    0.722137
      8          6           0       -2.928981   -0.406284    1.240545
      9          6           0       -3.063516    1.116624    1.684159
     10          6           0       -4.439502    1.606899    1.254946
     11          6           0       -2.962850    1.286622    3.311185
     12          6           0       -1.842565   -0.531273    0.095089
     13          6           0       -0.406383   -0.452232    0.581862
     14          6           0        0.630969   -0.803158   -0.539041
     15          8           0        0.216566   -1.150594   -1.665260
     16          8           0        1.871224   -0.460910   -0.255795
     17          7           0       -7.121721    2.581167    0.269655
     18          6           0       -6.071078    3.378877    0.694730
     19          6           0       -6.504900    4.778502    0.823721
     20          6           0       -7.748163    4.835096    0.391295
     21          6           0       -8.175730    3.443500    0.022663
     22          6           0       -5.743340    5.930694    1.456418
     23          6           0       -8.720967    5.903397    0.240579
     24          6           0       -8.399113    7.259979    0.159450
     25          7           0       -9.086370    0.605969   -0.597968
     26          6           0       -9.805357    1.705309   -0.665278
     27          6           0      -11.233120    1.398459   -1.131025
     28          6           0      -11.247553    0.020684   -1.205133
     29          6           0       -9.995978   -0.476822   -0.863926
     30          6           0      -12.235944    2.396290   -1.442488
     31          6           0      -12.317415   -0.876938   -1.646421
     32          6           0      -12.278398   -1.188307   -3.202752
     33          7           0       -7.228557   -1.397235   -0.148803
     34          6           0       -8.248595   -2.266404   -0.548218
     35          6           0       -7.781569   -3.591592   -0.538150
     36          6           0       -6.458030   -3.540762   -0.054600
     37          6           0       -6.123515   -2.165562    0.146991
     38          6           0       -8.566319   -4.819289   -0.852866
     39          6           0       -5.310919   -4.285438    0.201409
     40          8           0       -5.136135   -5.508392    0.118253
     41          6           0       -4.127340   -3.257152    0.507659
     42          6           0       -3.585357   -3.576779    1.914221
     43          8           0       -3.751619   -3.056413    2.945621
     44          8           0       -2.715141   -4.616850    1.804258
     45          6           0       -2.195070   -5.127311    2.995109
     46          6           0        2.837108   -0.711842   -1.329229
     47          6           0        4.167580   -0.589750   -0.715111
     48          6           0        5.116574    0.356536   -1.030200
     49          6           0        5.126714    1.333694   -2.163431
     50          6           0        6.373541    0.389885   -0.132038
     51          6           0        7.641988   -0.067012   -0.901671
     52          6           0        8.902840   -0.017924   -0.063923
     53          6           0       10.243889   -0.404447   -0.773837
     54          6           0       10.167788   -1.851709   -1.249767
     55          6           0       11.450139   -0.096763    0.064690
     56          6           0       12.774901   -0.433319   -0.683798
     57          6           0       13.996388   -0.048539    0.108982
     58          6           0       15.311822   -0.126448   -0.531437
     59          6           0       15.700040   -1.609969   -0.955734
     60          6           0       16.400581    0.489072    0.422773
     61          6           0       17.814984    0.484181   -0.167401
     62          6           0       18.786867    1.281554    0.711287
     63          6           0       20.249359    1.185813    0.314983
     64          6           0       20.366437    2.040291   -1.151251
     65          6           0       21.145394    1.720195    1.333373
     66          1           0       -4.062557    3.803642    1.521771
     67          1           0      -10.162366    3.712563   -0.451798
     68          1           0      -10.396877   -2.446545   -1.043307
     69          1           0       -2.506019   -0.986142    2.019342
     70          1           0       -2.459187    1.884088    1.133116
     71          1           0       -2.066900    0.925815    3.603714
     72          1           0       -2.967370    2.248841    3.819245
     73          1           0       -3.798634    0.590664    3.545860
     74          1           0       -1.963081   -1.443998   -0.415530
     75          1           0       -2.052354    0.136952   -0.649709
     76          1           0       -0.167752    0.559679    0.967618
     77          1           0       -0.401905   -1.121915    1.421206
     78          1           0       -5.306330    6.624539    0.690825
     79          1           0       -6.602948    6.559741    1.913731
     80          1           0       -5.003685    5.884296    2.293631
     81          1           0       -9.855302    5.716173    0.210712
     82          1           0       -9.186442    8.073900    0.147100
     83          1           0       -7.183101    7.606894    0.042355
     84          1           0      -12.046462    2.901366   -2.398660
     85          1           0      -13.262216    1.861848   -1.636855
     86          1           0      -12.464780    3.025731   -0.607190
     87          1           0      -12.201949   -1.874246   -1.108090
     88          1           0      -13.385331   -0.344435   -1.344643
     89          1           0      -12.912965   -2.034055   -3.525964
     90          1           0      -12.442788   -0.286941   -3.642925
     91          1           0      -11.289682   -1.448986   -3.660089
     92          1           0       -9.087206   -4.893375   -1.958591
     93          1           0       -7.847812   -5.669162   -0.562958
     94          1           0       -9.414395   -4.992739   -0.133632
     95          1           0       -3.283287   -3.395630   -0.293623
     96          1           0       -1.837429   -4.208629    3.511598
     97          1           0       -2.974415   -5.670727    3.634980
     98          1           0       -1.629977   -6.094940    2.807778
     99          1           0        2.746940   -1.779786   -1.548086
    100          1           0        2.461699   -0.125301   -2.242137
    101          1           0        4.421286   -1.180135    0.198925
    102          1           0        4.035872    1.234915   -2.671623
    103          1           0        5.078429    2.489197   -1.778620
    104          1           0        5.900579    1.025084   -2.919619
    105          1           0        6.609292    1.492637    0.235992
    106          1           0        6.515083   -0.165704    0.835978
    107          1           0        7.357510   -1.137197   -1.309589
    108          1           0        7.804453    0.559846   -1.852093
    109          1           0        9.120466    0.975946    0.050974
    110          1           0        8.716396   -0.718393    0.815767
    111          1           0       10.352274    0.191838   -1.669423
    112          1           0        9.188372   -2.151697   -1.839440
    113          1           0       11.063608   -2.086354   -1.967403
    114          1           0       10.273387   -2.535626   -0.439117
    115          1           0       11.512548    0.908287    0.394594
    116          1           0       11.377742   -0.809170    0.934146
    117          1           0       12.743392   -1.521183   -0.823304
    118          1           0       12.891619    0.078418   -1.795618
    119          1           0       13.886531    0.870990    0.566365
    120          1           0       13.898284   -0.833024    0.963274
    121          1           0       15.260892    0.288985   -1.540646
    122          1           0       15.430584   -2.243504    0.047476
    123          1           0       15.169222   -2.038967   -1.754932
    124          1           0       16.555610   -1.949504   -1.181547
    125          1           0       16.330843    1.560190    0.701942
    126          1           0       16.491790   -0.119777    1.259340
    127          1           0       18.273356   -0.353982   -0.581650
    128          1           0       17.979115    0.957654   -1.091752
    129          1           0       18.262216    2.240435    0.886060
    130          1           0       18.800180    0.629291    1.700742
    131          1           0       20.461671    0.302760   -0.177746
    132          1           0       20.530921    3.006284   -0.853995
    133          1           0       21.564252    1.877835   -1.299851
    134          1           0       19.635189    1.816377   -1.978542
    135          1           0       20.944473    1.062105    2.161726
    136          1           0       22.178720    1.714237    0.886332
    137          1           0       21.047926    2.830019    1.518635
 ---------------------------------------------------------------------

 SCF Done:  E(RCAM-B3LYP) =  -2932.69293102     A.U. after   18 cycles

 Excitation energies and oscillator strengths:

 Excited State   1:      Singlet-A      2.0242 eV  612.50 nm  f=0.3255  <S**2>=0.000
     240 -> 242       -0.13476
     240 -> 243        0.19087
     241 -> 242        0.65777
 This state for optimization and/or second-order correction.
 Total Energy, E(TD-HF/TD-KS) =  -2932.61854199
 Copying the excited state density for this state as the 1-particle RhoCI density.

 The electronic state is 1-A.
 Alpha  occ. eigenvalues --  -46.83158 -19.27014 -19.24236 -19.20940 -19.20072
 Alpha  occ. eigenvalues --  -19.18434 -14.41458 -14.40359 -14.39622 -14.38912
 Alpha  occ. eigenvalues --  -10.39262 -10.38376 -10.33426 -10.32602 -10.31323
 Alpha  occ. eigenvalues --  -10.30897 -10.30881 -10.30688 -10.30414 -10.29842
 Alpha  occ. eigenvalues --  -10.29590 -10.29296 -10.28782 -10.28757 -10.28619
 Alpha  occ. eigenvalues --  -10.28556 -10.28447 -10.28434 -10.28194 -10.28112
 Alpha  occ. eigenvalues --  -10.28085 -10.27859 -10.27799 -10.27732 -10.27438
 Alpha  occ. eigenvalues --  -10.27265 -10.27141 -10.27125 -10.27066 -10.26864
 Alpha  occ. eigenvalues --  -10.26813 -10.26722 -10.26707 -10.26481 -10.26290
 Alpha  occ. eigenvalues --  -10.26115 -10.26096 -10.26018 -10.25946 -10.25529
 Alpha  occ. eigenvalues --  -10.25497 -10.25259 -10.25221 -10.25168 -10.25137
 Alpha  occ. eigenvalues --  -10.25117 -10.25115 -10.25046 -10.25018 -10.24978
 Alpha  occ. eigenvalues --  -10.24377 -10.24163 -10.23709 -10.23608 -10.22970
 Alpha  occ. eigenvalues --   -3.12461  -1.87148  -1.86731  -1.86635  -1.19004
 Alpha  occ. eigenvalues --   -1.18478  -1.10026  -1.08288  -1.07461  -1.04036
 Alpha  occ. eigenvalues --   -1.03109  -1.02559  -1.00976  -0.93242  -0.91361
 Alpha  occ. eigenvalues --   -0.90649  -0.90224  -0.89929  -0.89881  -0.88836
 Alpha  occ. eigenvalues --   -0.88617  -0.88418  -0.87569  -0.86276  -0.85670
 Alpha  occ. eigenvalues --   -0.84734  -0.84203  -0.83409  -0.83208  -0.82574
 Alpha  occ. eigenvalues --   -0.81878  -0.81043  -0.80590  -0.79904  -0.78216
 Alpha  occ. eigenvalues --   -0.77776  -0.77216  -0.76308  -0.75564  -0.75435
 Alpha  occ. eigenvalues --   -0.75253  -0.74905  -0.74367  -0.73276  -0.72450
 Alpha  occ. eigenvalues --   -0.71447  -0.70654  -0.69978  -0.69162  -0.68042
 Alpha  occ. eigenvalues --   -0.66921  -0.66744  -0.65750  -0.64922  -0.64858
 Alpha  occ. eigenvalues --   -0.63887  -0.63759  -0.63366  -0.63218  -0.62397
 Alpha  occ. eigenvalues --   -0.61730  -0.60362  -0.59994  -0.59501  -0.59218
 Alpha  occ. eigenvalues --   -0.58247  -0.57874  -0.57717  -0.57363  -0.56684
 Alpha  occ. eigenvalues --   -0.55869  -0.55745  -0.55391  -0.55010  -0.54740
 Alpha  occ. eigenvalues --   -0.54351  -0.54121  -0.53530  -0.53454  -0.53035
 Alpha  occ. eigenvalues --   -0.52652  -0.52546  -0.52203  -0.51831  -0.51747
 Alpha  occ. eigenvalues --   -0.51635  -0.51338  -0.51214  -0.50813  -0.50777
 Alpha  occ. eigenvalues --   -0.50521  -0.50484  -0.50056  -0.49689  -0.49500
 Alpha  occ. eigenvalues --   -0.49137  -0.49008  -0.48956  -0.48724  -0.48638
 Alpha  occ. eigenvalues --   -0.48241  -0.48153  -0.47325  -0.47188  -0.46878
 Alpha  occ. eigenvalues --   -0.46788  -0.46493  -0.46312  -0.46157  -0.46142
 Alpha  occ. eigenvalues --   -0.45971  -0.45491  -0.45424  -0.44619  -0.44610
 Alpha  occ. eigenvalues --   -0.44369  -0.44302  -0.44163  -0.43916  -0.43617
 Alpha  occ. eigenvalues --   -0.43537  -0.43471  -0.43202  -0.43103  -0.42992
 Alpha  occ. eigenvalues --   -0.42779  -0.42655  -0.42563  -0.42296  -0.42142
 Alpha  occ. eigenvalues --   -0.41975  -0.41892  -0.41650  -0.41569  -0.41220
 Alpha  occ. eigenvalues --   -0.41107  -0.40912  -0.40674  -0.40252  -0.40101
 Alpha  occ. eigenvalues --   -0.39772  -0.39581  -0.39511  -0.39328  -0.39142
 Alpha  occ. eigenvalues --   -0.38880  -0.38827  -0.38612  -0.38151  -0.37957
 Alpha  occ. eigenvalues --   -0.37889  -0.37184  -0.37073  -0.36635  -0.36528
 Alpha  occ. eigenvalues --   -0.36093  -0.36074  -0.36004  -0.35512  -0.35210
 Alpha  occ. eigenvalues --   -0.34997  -0.34598  -0.34181  -0.33681  -0.33145
 Alpha  occ. eigenvalues --   -0.32743  -0.32262  -0.31911  -0.31581  -0.29680
 Alpha  occ. eigenvalues --   -0.29110  -0.28846  -0.28612  -0.28182  -0.23621
 Alpha  occ. eigenvalues --   -0.21285
 Alpha virt. eigenvalues --   -0.07187  -0.02745   0.01565   0.03431   0.04900
 Alpha virt. eigenvalues --    0.06199   0.06264   0.06808   0.07046   0.07639
 Alpha virt. eigenvalues --    0.08564   0.10626   0.11061   0.11588   0.11708

 Mulliken charges:
               1
     1  Mg   0.822111
     2  C    0.165763
     3  C   -0.196804
     4  C   -0.124167
     5  C   -0.160519
     6  N   -0.656161
     7  C    0.279103
     8  C   -0.161013
     9  C   -0.170539
    10  C    0.357182
    11  C   -0.316079
    12  C   -0.171176
    13  C   -0.274676
    14  C    0.602667
    15  O   -0.494435
    16  O   -0.452395
    17  N   -0.685577
    18  C    0.297301
    19  C    0.033285
    20  C    0.062422
    21  C    0.280386
    22  C   -0.398845
    23  C   -0.094599
    24  C   -0.247988
    25  N   -0.713112
    26  C    0.344313
    27  C    0.011669
    28  C    0.082206
    29  C    0.282959
    30  C   -0.393213
    31  C   -0.262476
    32  C   -0.312865
    33  N   -0.789402
    34  C    0.261025
    35  C    0.045082
    36  C    0.047722
    37  C    0.284657
    38  C   -0.390259
    39  C    0.318325
    40  O   -0.490790
    41  C   -0.363944
    42  C    0.624134
    43  O   -0.443109
    44  O   -0.449638
    45  C   -0.081866
    46  C    0.000287
    47  C   -0.134914
    48  C    0.128336
    49  C   -0.353385
    50  C   -0.217333
    51  C   -0.177624
    52  C   -0.155146
    53  C   -0.067494
    54  C   -0.315813
    55  C   -0.168632
    56  C   -0.181357
    57  C   -0.149343
    58  C   -0.067065
    59  C   -0.313115
    60  C   -0.161424
    61  C   -0.201698
    62  C   -0.152608
    63  C   -0.064025
    64  C   -0.347757
    65  C   -0.305209
    66  H    0.077638
    67  H    0.054633
    68  H    0.090380
    69  H    0.117608
    70  H    0.100795
    71  H    0.117152
    72  H    0.108748
    73  H    0.129947
    74  H    0.121968
    75  H    0.115473
    76  H    0.128190
    77  H    0.127742
    78  H    0.123662
    79  H    0.125225
    80  H    0.125492
    81  H    0.107180
    82  H    0.113002
    83  H    0.092254
    84  H    0.135762
    85  H    0.099165
    86  H    0.130357
    87  H    0.102184
    88  H    0.084882
    89  H    0.109140
    90  H    0.122487
    91  H    0.110312
    92  H    0.103105
    93  H    0.145773
    94  H    0.119882
    95  H    0.172522
    96  H    0.122601
    97  H    0.105869
    98  H    0.121705
    99  H    0.134309
   100  H    0.139653
   101  H    0.106604
   102  H    0.090703
   103  H    0.114130
   104  H    0.137154
   105  H    0.078804
   106  H    0.098563
   107  H    0.079817
   108  H    0.078288
   109  H    0.102985
   110  H    0.083662
   111  H    0.086905
   112  H    0.091999
   113  H    0.089405
   114  H    0.103376
   115  H    0.095965
   116  H    0.086245
   117  H    0.108211
   118  H    0.053244
   119  H    0.096433
   120  H    0.072965
   121  H    0.089936
   122  H    0.061458
   123  H    0.104080
   124  H    0.113493
   125  H    0.089802
   126  H    0.111001
   127  H    0.090654
   128  H    0.080688
   129  H    0.089740
   130  H    0.052788
   131  H    0.116060
   132  H    0.116289
   133  H    0.061069
   134  H    0.115411
   135  H    0.114586
   136  H    0.093405
   137  H    0.105940
 Sum of Mulliken charges =   0.00000

 Dipole moment (field-independent basis, Debye):
    X=              0.8127    Y=              7.1589    Z=              0.3575  Tot=              7.2137
 Quadrupole moment (field-independent basis, Debye-Ang):
   XX=           -320.4013   YY=           -392.5389   ZZ=           -399.0643
   XY=            -36.6890   XZ=              8.2412   YZ=             -0.4873

 Normal termination of Gaussian 09 at Thu Jun 27 05:36:33 2019.
