 Gaussian 09, Revision D.01,
 Gaussian 09:  ES64L-G09RevD.01 24-Apr-2013

 -------------------------------------
 # td=(NStates=1) CAM-B3LYP/6-31G(d,p)
 -------------------------------------

 --
 TD
 --
 Symbolic Z-matrix:
 Charge =  0 Multiplicity = 1

                         Standard orientation:
 ---------------------------------------------------------------------
 Center     Atomic      Atomic             Coordinates (Angstroms)
 Number     Number       Type             X           Y           Z
 ---------------------------------------------------------------------
      1         12           0       -7.114786    0.540304    0.122223
      2          6           0       -4.774501   -1.945515    0.592501
      3          6           0       -4.846293    2.827868    1.276157
      4          6           0       -9.390119    2.984782   -0.307748
      5          6           0       -9.454397   -1.790073   -0.787121
      6          7           0       -4.969040    0.439468    0.728406
      7          6           0       -4.328517   -0.648627    0.830181
      8          6           0       -2.831694   -0.388648    1.238151
      9          6           0       -2.902527    1.255594    1.646876
     10          6           0       -4.322126    1.521323    1.169514
     11          6           0       -2.799465    1.432025    3.152410
     12          6           0       -1.941012   -0.579814    0.095058
     13          6           0       -0.473109   -0.427403    0.402842
     14          6           0        0.391803   -0.667303   -0.744381
     15          8           0        0.081175   -1.076763   -1.831373
     16          8           0        1.782130   -0.402445   -0.493424
     17          7           0       -7.096461    2.548068    0.481999
     18          6           0       -6.111645    3.323734    0.836909
     19          6           0       -6.449902    4.746025    0.954475
     20          6           0       -7.799696    4.830912    0.441613
     21          6           0       -8.195009    3.451027    0.197378
     22          6           0       -5.472374    5.847816    1.251764
     23          6           0       -8.607457    5.982146    0.354449
     24          6           0       -8.265117    7.274338    0.140572
     25          7           0       -9.106365    0.641152   -0.521707
     26          6           0       -9.847018    1.753218   -0.616918
     27          6           0      -11.147076    1.360983   -1.173561
     28          6           0      -11.178909    0.072635   -1.215118
     29          6           0       -9.848049   -0.395683   -0.931307
     30          6           0      -12.330788    2.245624   -1.437111
     31          6           0      -12.357820   -0.816950   -1.686888
     32          6           0      -12.209544   -1.142893   -3.203088
     33          7           0       -7.169410   -1.475120   -0.147475
     34          6           0       -8.236953   -2.288873   -0.362832
     35          6           0       -7.739226   -3.627743   -0.409003
     36          6           0       -6.414454   -3.580706   -0.080014
     37          6           0       -6.086089   -2.183221    0.149741
     38          6           0       -8.729260   -4.727788   -0.742304
     39          6           0       -5.225139   -4.254173    0.195092
     40          8           0       -5.073883   -5.494825    0.311489
     41          6           0       -4.072937   -3.282818    0.646372
     42          6           0       -3.386141   -3.563917    1.949151
     43          8           0       -3.556803   -3.065843    3.008105
     44          8           0       -2.460252   -4.686062    1.747731
     45          6           0       -1.887834   -5.041137    2.982157
     46          6           0        2.711647   -0.688880   -1.421355
     47          6           0        4.019587   -0.460869   -0.707633
     48          6           0        5.042289    0.256187   -1.111185
     49          6           0        4.980084    1.236964   -2.307384
     50          6           0        6.328106    0.321129   -0.279223
     51          6           0        7.502311   -0.216841   -1.002024
     52          6           0        8.786247    0.003781   -0.238143
     53          6           0       10.034027   -0.491667   -1.015902
     54          6           0        9.946551   -1.974894   -1.470231
     55          6           0       11.284458   -0.191245   -0.129380
     56          6           0       12.698468   -0.335030   -0.760378
     57          6           0       13.852799   -0.045206    0.122633
     58          6           0       15.317071   -0.316698   -0.422351
     59          6           0       15.609273   -1.767650   -0.772108
     60          6           0       16.332284    0.306949    0.612839
     61          6           0       17.750901    0.379783   -0.063420
     62          6           0       18.732132    1.212658    0.818961
     63          6           0       20.066285    1.422427    0.234913
     64          6           0       20.134263    2.315792   -0.991197
     65          6           0       21.168619    1.934606    1.322408
     66          1           0       -4.110345    3.678130    1.490511
     67          1           0      -10.083545    3.715106   -0.412384
     68          1           0      -10.189723   -2.668010   -1.091772
     69          1           0       -2.498239   -1.009743    2.082581
     70          1           0       -1.997283    1.670049    1.126633
     71          1           0       -1.674996    1.086492    3.327249
     72          1           0       -2.946240    2.437345    3.493419
     73          1           0       -3.489287    0.712544    3.482344
     74          1           0       -2.079852   -1.512358   -0.393662
     75          1           0       -2.143268    0.043707   -0.639073
     76          1           0       -0.258253    0.567042    0.994797
     77          1           0       -0.352525   -1.387450    1.088899
     78          1           0       -4.848090    6.087676    0.451269
     79          1           0       -6.128568    6.690607    1.493757
     80          1           0       -4.703361    5.590730    2.017147
     81          1           0       -9.716865    5.809242    0.626675
     82          1           0       -9.048652    8.053362    0.200948
     83          1           0       -7.176832    7.440440   -0.041966
     84          1           0      -11.869629    3.086876   -2.120116
     85          1           0      -13.232187    1.966912   -2.084421
     86          1           0      -12.532679    2.800473   -0.504139
     87          1           0      -12.587918   -1.733872   -1.266117
     88          1           0      -13.325272   -0.312566   -1.467810
     89          1           0      -13.221711   -1.484566   -3.674608
     90          1           0      -11.995250   -0.193747   -3.772910
     91          1           0      -11.517140   -2.004950   -3.444201
     92          1           0       -8.713599   -4.674771   -1.818481
     93          1           0       -8.174565   -5.555011   -0.427064
     94          1           0       -9.627721   -4.760445   -0.184630
     95          1           0       -3.376826   -3.403356   -0.445006
     96          1           0       -1.594346   -4.113095    3.800804
     97          1           0       -2.615079   -5.492747    3.702631
     98          1           0       -1.022101   -5.820989    2.961385
     99          1           0        2.622823   -1.689095   -1.780213
    100          1           0        2.396697    0.045620   -2.291221
    101          1           0        4.181691   -1.190866    0.216966
    102          1           0        3.981722    1.264202   -2.687994
    103          1           0        5.276867    2.272594   -2.184038
    104          1           0        5.750378    0.862381   -3.182714
    105          1           0        6.469505    1.275305   -0.062553
    106          1           0        6.062913   -0.214283    0.846078
    107          1           0        7.350355   -1.137184   -1.273231
    108          1           0        7.624294    0.142511   -1.863955
    109          1           0        9.019388    1.120340    0.069788
    110          1           0        8.871862   -0.753209    0.657818
    111          1           0       10.169604    0.059160   -1.891948
    112          1           0        9.159121   -1.910637   -2.347030
    113          1           0       10.938346   -2.552240   -1.693937
    114          1           0        9.527214   -2.475617   -0.694541
    115          1           0       11.134306    0.788631    0.330143
    116          1           0       11.403285   -0.960585    0.747774
    117          1           0       12.763366   -1.444648   -1.048454
    118          1           0       12.781542    0.349471   -1.730719
    119          1           0       13.905244    0.958011    0.530272
    120          1           0       13.765384   -0.815821    1.050405
    121          1           0       15.532685    0.249478   -1.323235
    122          1           0       15.624975   -2.514328    0.107328
    123          1           0       14.823860   -2.172268   -1.589636
    124          1           0       16.648551   -1.629005   -1.322421
    125          1           0       15.955284    1.179407    0.974016
    126          1           0       16.332810   -0.478085    1.482411
    127          1           0       18.214646   -0.644997    0.035037
    128          1           0       17.766340    0.843825   -1.039620
    129          1           0       18.325836    2.198258    1.256193
    130          1           0       18.966039    0.762237    1.775843
    131          1           0       20.620483    0.494656   -0.093275
    132          1           0       19.839333    3.425823   -0.839467
    133          1           0       21.005245    2.301640   -1.441009
    134          1           0       19.413779    2.009258   -1.565372
    135          1           0       20.979243    1.273547    2.124887
    136          1           0       22.255217    1.890259    0.945668
    137          1           0       20.817094    3.007724    1.692962
 ---------------------------------------------------------------------

 SCF Done:  E(RCAM-B3LYP) =  -2932.67513998     A.U. after   18 cycles

 Excitation energies and oscillator strengths:

 Excited State   1:      Singlet-A      2.0967 eV  591.32 nm  f=0.2506  <S**2>=0.000
     240 -> 243       -0.26958
     241 -> 242        0.64681
 This state for optimization and/or second-order correction.
 Total Energy, E(TD-HF/TD-KS) =  -2932.59808635
 Copying the excited state density for this state as the 1-particle RhoCI density.

 The electronic state is 1-A.
 Alpha  occ. eigenvalues --  -46.86009 -19.25909 -19.23983 -19.23948 -19.22084
 Alpha  occ. eigenvalues --  -19.19614 -14.42150 -14.40186 -14.39940 -14.39489
 Alpha  occ. eigenvalues --  -10.40998 -10.39803 -10.35175 -10.31865 -10.31314
 Alpha  occ. eigenvalues --  -10.31281 -10.31183 -10.30833 -10.29818 -10.29723
 Alpha  occ. eigenvalues --  -10.29571 -10.29557 -10.29516 -10.29181 -10.29106
 Alpha  occ. eigenvalues --  -10.28958 -10.28635 -10.28377 -10.28040 -10.27989
 Alpha  occ. eigenvalues --  -10.27789 -10.27544 -10.27460 -10.27249 -10.27134
 Alpha  occ. eigenvalues --  -10.26604 -10.26599 -10.26577 -10.26566 -10.26499
 Alpha  occ. eigenvalues --  -10.26457 -10.26392 -10.26388 -10.26260 -10.26106
 Alpha  occ. eigenvalues --  -10.25996 -10.25984 -10.25948 -10.25727 -10.25712
 Alpha  occ. eigenvalues --  -10.25677 -10.25662 -10.25573 -10.25500 -10.25463
 Alpha  occ. eigenvalues --  -10.25374 -10.25346 -10.25270 -10.25252 -10.25238
 Alpha  occ. eigenvalues --  -10.25162 -10.24872 -10.24837 -10.22172 -10.21763
 Alpha  occ. eigenvalues --   -3.14862  -1.89586  -1.89102  -1.89015  -1.18325
 Alpha  occ. eigenvalues --   -1.17708  -1.10299  -1.10211  -1.08888  -1.07031
 Alpha  occ. eigenvalues --   -1.05666  -1.04972  -1.03373  -0.93617  -0.91784
 Alpha  occ. eigenvalues --   -0.91375  -0.90242  -0.89968  -0.89441  -0.88955
 Alpha  occ. eigenvalues --   -0.88899  -0.88650  -0.88008  -0.87904  -0.86122
 Alpha  occ. eigenvalues --   -0.85274  -0.84316  -0.84086  -0.83224  -0.82846
 Alpha  occ. eigenvalues --   -0.81682  -0.81054  -0.80197  -0.80031  -0.79030
 Alpha  occ. eigenvalues --   -0.78058  -0.77292  -0.76454  -0.76173  -0.75333
 Alpha  occ. eigenvalues --   -0.74704  -0.74658  -0.74119  -0.73534  -0.72701
 Alpha  occ. eigenvalues --   -0.71851  -0.70674  -0.69658  -0.69434  -0.69080
 Alpha  occ. eigenvalues --   -0.68223  -0.67641  -0.66159  -0.65363  -0.64922
 Alpha  occ. eigenvalues --   -0.64304  -0.62795  -0.62535  -0.62349  -0.62138
 Alpha  occ. eigenvalues --   -0.61331  -0.61209  -0.61046  -0.60277  -0.59304
 Alpha  occ. eigenvalues --   -0.59064  -0.58694  -0.58616  -0.57752  -0.57258
 Alpha  occ. eigenvalues --   -0.56556  -0.56104  -0.55617  -0.55102  -0.54940
 Alpha  occ. eigenvalues --   -0.54675  -0.54462  -0.54206  -0.53617  -0.53412
 Alpha  occ. eigenvalues --   -0.53232  -0.52962  -0.52659  -0.52037  -0.51806
 Alpha  occ. eigenvalues --   -0.51296  -0.51224  -0.51130  -0.51085  -0.50764
 Alpha  occ. eigenvalues --   -0.50629  -0.50449  -0.50251  -0.50061  -0.49811
 Alpha  occ. eigenvalues --   -0.49411  -0.49307  -0.49273  -0.48724  -0.48519
 Alpha  occ. eigenvalues --   -0.48242  -0.48019  -0.47888  -0.47540  -0.47225
 Alpha  occ. eigenvalues --   -0.47120  -0.46878  -0.46816  -0.46643  -0.46203
 Alpha  occ. eigenvalues --   -0.45995  -0.45930  -0.45589  -0.45520  -0.45313
 Alpha  occ. eigenvalues --   -0.45247  -0.44908  -0.44565  -0.44516  -0.44211
 Alpha  occ. eigenvalues --   -0.44016  -0.43703  -0.43402  -0.43369  -0.43128
 Alpha  occ. eigenvalues --   -0.43039  -0.42896  -0.42763  -0.42501  -0.42445
 Alpha  occ. eigenvalues --   -0.42424  -0.42114  -0.41712  -0.41656  -0.41541
 Alpha  occ. eigenvalues --   -0.41333  -0.41054  -0.40880  -0.40722  -0.40602
 Alpha  occ. eigenvalues --   -0.40558  -0.40303  -0.40109  -0.39886  -0.39137
 Alpha  occ. eigenvalues --   -0.39088  -0.38986  -0.38483  -0.38037  -0.37597
 Alpha  occ. eigenvalues --   -0.37234  -0.37084  -0.37069  -0.36633  -0.36418
 Alpha  occ. eigenvalues --   -0.36277  -0.35980  -0.35890  -0.35627  -0.35553
 Alpha  occ. eigenvalues --   -0.35310  -0.34692  -0.34176  -0.34038  -0.33949
 Alpha  occ. eigenvalues --   -0.33376  -0.33080  -0.32850  -0.31426  -0.30649
 Alpha  occ. eigenvalues --   -0.29919  -0.29878  -0.29515  -0.27629  -0.23413
 Alpha  occ. eigenvalues --   -0.21838
 Alpha virt. eigenvalues --   -0.06903  -0.03352   0.00840   0.02791   0.04047
 Alpha virt. eigenvalues --    0.04734   0.05330   0.05736   0.06706   0.07842
 Alpha virt. eigenvalues --    0.08501   0.10185   0.11127   0.11390   0.11543

 Mulliken charges:
               1
     1  Mg   0.825110
     2  C    0.074528
     3  C   -0.196863
     4  C   -0.161919
     5  C   -0.183420
     6  N   -0.617528
     7  C    0.331109
     8  C   -0.190472
     9  C   -0.166635
    10  C    0.310622
    11  C   -0.276478
    12  C   -0.160696
    13  C   -0.274421
    14  C    0.617648
    15  O   -0.450285
    16  O   -0.491586
    17  N   -0.692332
    18  C    0.334748
    19  C    0.001657
    20  C    0.038256
    21  C    0.259308
    22  C   -0.377930
    23  C   -0.095175
    24  C   -0.251942
    25  N   -0.684667
    26  C    0.311917
    27  C    0.040863
    28  C    0.028918
    29  C    0.267606
    30  C   -0.384365
    31  C   -0.231491
    32  C   -0.309377
    33  N   -0.758650
    34  C    0.300252
    35  C   -0.040344
    36  C    0.106630
    37  C    0.299166
    38  C   -0.363204
    39  C    0.283367
    40  O   -0.475004
    41  C   -0.307130
    42  C    0.659328
    43  O   -0.422892
    44  O   -0.469938
    45  C   -0.083428
    46  C    0.027766
    47  C   -0.134964
    48  C    0.114657
    49  C   -0.354473
    50  C   -0.202147
    51  C   -0.152464
    52  C   -0.174663
    53  C   -0.071851
    54  C   -0.307754
    55  C   -0.165239
    56  C   -0.166604
    57  C   -0.154840
    58  C   -0.064965
    59  C   -0.293911
    60  C   -0.167081
    61  C   -0.188177
    62  C   -0.180274
    63  C   -0.071075
    64  C   -0.282749
    65  C   -0.311279
    66  H    0.072859
    67  H    0.067765
    68  H    0.098691
    69  H    0.114562
    70  H    0.099219
    71  H    0.084127
    72  H    0.117751
    73  H    0.132729
    74  H    0.122972
    75  H    0.122395
    76  H    0.131339
    77  H    0.142515
    78  H    0.139179
    79  H    0.120329
    80  H    0.113370
    81  H    0.091255
    82  H    0.113765
    83  H    0.104977
    84  H    0.100512
    85  H    0.126268
    86  H    0.127743
    87  H    0.111474
    88  H    0.100166
    89  H    0.085289
    90  H    0.108981
    91  H    0.108479
    92  H    0.142731
    93  H    0.150298
    94  H    0.136144
    95  H    0.152718
    96  H    0.085375
    97  H    0.117728
    98  H    0.114696
    99  H    0.116794
   100  H    0.090547
   101  H    0.084909
   102  H    0.115809
   103  H    0.119498
   104  H    0.087131
   105  H    0.109489
   106  H    0.060081
   107  H    0.109258
   108  H    0.102125
   109  H    0.082111
   110  H    0.082392
   111  H    0.091715
   112  H    0.085612
   113  H    0.097656
   114  H    0.116084
   115  H    0.084280
   116  H    0.067381
   117  H    0.085054
   118  H    0.065421
   119  H    0.087829
   120  H    0.058181
   121  H    0.085792
   122  H    0.095636
   123  H    0.087424
   124  H    0.092545
   125  H    0.101939
   126  H    0.079664
   127  H    0.110994
   128  H    0.106721
   129  H    0.078009
   130  H    0.091294
   131  H    0.079303
   132  H    0.074030
   133  H    0.106166
   134  H    0.099565
   135  H    0.103718
   136  H    0.096579
   137  H    0.082093
 Sum of Mulliken charges =   0.00000

 Dipole moment (field-independent basis, Debye):
    X=             -1.8849    Y=              5.0485    Z=             -0.4177  Tot=              5.4050
 Quadrupole moment (field-independent basis, Debye-Ang):
   XX=           -339.1090   YY=           -400.5430   ZZ=           -402.3220
   XY=            -22.3074   XZ=              7.4462   YZ=             -0.8057

 Normal termination of Gaussian 09 at Sun Jun 30 17:06:49 2019.
