 Gaussian 09, Revision D.01,
 Gaussian 09:  ES64L-G09RevD.01 24-Apr-2013

 -------------------------------------
 # td=(NStates=1) CAM-B3LYP/6-31G(d,p)
 -------------------------------------

 --
 TD
 --
 Symbolic Z-matrix:
 Charge =  0 Multiplicity = 1

                         Standard orientation:
 ---------------------------------------------------------------------
 Center     Atomic      Atomic             Coordinates (Angstroms)
 Number     Number       Type             X           Y           Z
 ---------------------------------------------------------------------
      1         12           0       -7.107343    0.633071    0.027419
      2          6           0       -4.761050   -1.992785    0.531881
      3          6           0       -4.746755    2.760362    1.206042
      4          6           0       -9.394617    3.160630   -0.375446
      5          6           0       -9.555085   -1.689189   -0.954375
      6          7           0       -5.115806    0.423489    0.688845
      7          6           0       -4.341192   -0.761352    0.878704
      8          6           0       -2.897991   -0.390236    1.172374
      9          6           0       -2.972368    1.111078    1.720138
     10          6           0       -4.400420    1.442776    1.137761
     11          6           0       -2.967852    1.150481    3.290858
     12          6           0       -1.891436   -0.598141   -0.051581
     13          6           0       -0.498824   -0.396678    0.371574
     14          6           0        0.580875   -0.656893   -0.650525
     15          8           0        0.248861   -1.042249   -1.775745
     16          8           0        1.863788   -0.474568   -0.276736
     17          7           0       -7.091743    2.625599    0.331841
     18          6           0       -5.988784    3.342914    0.812855
     19          6           0       -6.306214    4.744485    0.880837
     20          6           0       -7.665256    4.822933    0.419495
     21          6           0       -8.094686    3.451733    0.107655
     22          6           0       -5.486067    5.897654    1.369350
     23          6           0       -8.620081    5.965368    0.496773
     24          6           0       -8.232272    7.198204    0.123521
     25          7           0       -9.038063    0.733959   -0.511556
     26          6           0       -9.826642    1.823165   -0.706587
     27          6           0      -11.170072    1.507340   -0.975496
     28          6           0      -11.220089    0.129207   -1.206333
     29          6           0       -9.891380   -0.301479   -0.916741
     30          6           0      -12.348966    2.438638   -1.047940
     31          6           0      -12.361408   -0.673704   -1.712957
     32          6           0      -12.354272   -0.961308   -3.237112
     33          7           0       -7.274931   -1.357246   -0.207489
     34          6           0       -8.311982   -2.204300   -0.601878
     35          6           0       -7.798792   -3.565287   -0.495091
     36          6           0       -6.540585   -3.524917   -0.107716
     37          6           0       -6.263926   -2.189325    0.086914
     38          6           0       -8.608291   -4.746849   -0.988752
     39          6           0       -5.444184   -4.378856    0.127999
     40          8           0       -5.278550   -5.586220    0.029509
     41          6           0       -4.209643   -3.321110    0.607086
     42          6           0       -3.566599   -3.737861    1.943991
     43          8           0       -3.858013   -3.305900    3.060697
     44          8           0       -2.804140   -4.784967    1.879277
     45          6           0       -2.300766   -5.288030    3.133136
     46          6           0        2.892337   -0.707890   -1.282016
     47          6           0        4.138212   -0.486655   -0.521396
     48          6           0        5.138579    0.330999   -1.070342
     49          6           0        5.061431    1.069023   -2.373609
     50          6           0        6.445697    0.390402   -0.267761
     51          6           0        7.668104   -0.139734   -1.039987
     52          6           0        8.897301   -0.150992   -0.223414
     53          6           0       10.186763   -0.573533   -0.942109
     54          6           0       10.083917   -1.964418   -1.480765
     55          6           0       11.416827   -0.213120   -0.050172
     56          6           0       12.740179   -0.476780   -0.650011
     57          6           0       13.835834   -0.083892    0.231706
     58          6           0       15.298836   -0.051590   -0.485023
     59          6           0       15.748459   -1.397059   -1.000365
     60          6           0       16.418737    0.408668    0.576870
     61          6           0       17.782444    0.530036   -0.030143
     62          6           0       18.767552    1.265077    0.838390
     63          6           0       20.204964    1.215278    0.318732
     64          6           0       20.407875    1.957896   -0.962968
     65          6           0       21.159506    1.904309    1.367209
     66          1           0       -3.986211    3.499954    1.414630
     67          1           0      -10.093575    3.823072   -0.503395
     68          1           0      -10.379939   -2.450966   -1.268006
     69          1           0       -2.405772   -0.937225    2.131731
     70          1           0       -2.168060    1.657244    1.328094
     71          1           0       -2.016621    0.954514    3.738583
     72          1           0       -3.150699    2.360053    3.647750
     73          1           0       -3.767845    0.895315    3.831438
     74          1           0       -1.985552   -1.740218   -0.519116
     75          1           0       -2.064205    0.108233   -0.952213
     76          1           0       -0.248424    0.410172    1.194050
     77          1           0       -0.241569   -1.391449    1.162881
     78          1           0       -4.746513    6.016998    0.533227
     79          1           0       -6.170074    6.740371    1.536297
     80          1           0       -5.022537    5.746945    2.411227
     81          1           0       -9.655829    5.738463    0.326176
     82          1           0       -8.877551    8.102506    0.020948
     83          1           0       -7.288738    7.582648   -0.022127
     84          1           0      -12.368905    3.006085   -1.809158
     85          1           0      -13.384848    1.795018   -1.182875
     86          1           0      -12.136217    3.142255   -0.147989
     87          1           0      -12.378908   -1.539723   -1.168544
     88          1           0      -13.145616   -0.143033   -1.210551
     89          1           0      -13.368429   -1.440061   -3.571506
     90          1           0      -12.519137    0.202838   -3.741776
     91          1           0      -11.526890   -1.703472   -3.683728
     92          1           0       -8.863424   -4.265542   -2.104681
     93          1           0       -7.819976   -5.458839   -1.094590
     94          1           0       -9.588704   -4.978613   -0.263155
     95          1           0       -3.379479   -3.382644   -0.146309
     96          1           0       -1.579706   -4.726920    3.478195
     97          1           0       -3.281673   -5.496877    3.688912
     98          1           0       -1.940101   -6.406618    2.913147
     99          1           0        2.965778   -1.836847   -1.626195
    100          1           0        2.666969   -0.125083   -1.980506
    101          1           0        4.375318   -1.093568    0.291035
    102          1           0        3.937055    1.189187   -2.741973
    103          1           0        5.534814    2.163649   -2.351806
    104          1           0        5.691485    0.702026   -3.108598
    105          1           0        6.583802    1.453407    0.038040
    106          1           0        6.357454   -0.231452    0.590961
    107          1           0        7.608518   -1.145185   -1.699740
    108          1           0        7.543403    0.404008   -2.004018
    109          1           0        8.925994    0.915352    0.158423
    110          1           0        8.753518   -0.851153    0.704942
    111          1           0       10.425771    0.109171   -1.788053
    112          1           0        9.441447   -2.055170   -2.223058
    113          1           0       11.003456   -2.289699   -1.879730
    114          1           0        9.782957   -2.507871   -0.648221
    115          1           0       11.375440    0.910260    0.055308
    116          1           0       11.265578   -0.877294    0.948088
    117          1           0       12.838808   -1.576111   -1.052568
    118          1           0       12.775259   -0.002933   -1.588584
    119          1           0       13.587778    0.898312    0.470674
    120          1           0       13.893421   -0.780725    1.185708
    121          1           0       15.378933    0.572806   -1.252346
    122          1           0       15.740182   -1.898655   -0.018178
    123          1           0       15.020526   -2.002456   -1.477491
    124          1           0       16.693709   -1.581030   -1.313150
    125          1           0       16.110087    1.548723    0.921000
    126          1           0       16.289990   -0.298487    1.428924
    127          1           0       18.044013   -0.492555   -0.298809
    128          1           0       17.867223    1.207262   -0.941524
    129          1           0       18.370581    2.378427    0.912224
    130          1           0       18.757806    0.673026    1.761176
    131          1           0       20.488655    0.051388    0.210011
    132          1           0       20.213315    3.139307   -1.044410
    133          1           0       21.545247    1.923275   -1.121170
    134          1           0       19.806386    1.749600   -1.903239
    135          1           0       21.464514    1.545333    2.474544
    136          1           0       22.166657    2.056339    0.849433
    137          1           0       20.800928    2.940535    1.259366
 ---------------------------------------------------------------------

 SCF Done:  E(RCAM-B3LYP) =  -2932.58532751     A.U. after   16 cycles

 Excitation energies and oscillator strengths:

 Excited State   1:      Singlet-A      2.0000 eV  619.91 nm  f=0.2389  <S**2>=0.000
     240 -> 243        0.20409
     241 -> 242        0.66882
 This state for optimization and/or second-order correction.
 Total Energy, E(TD-HF/TD-KS) =  -2932.51182794
 Copying the excited state density for this state as the 1-particle RhoCI density.

 The electronic state is 1-A.
 Alpha  occ. eigenvalues --  -46.83411 -19.25977 -19.25610 -19.21344 -19.19877
 Alpha  occ. eigenvalues --  -19.18503 -14.41463 -14.39810 -14.39082 -14.38923
 Alpha  occ. eigenvalues --  -10.39153 -10.38096 -10.36049 -10.31245 -10.31098
 Alpha  occ. eigenvalues --  -10.30678 -10.30351 -10.30160 -10.29903 -10.29591
 Alpha  occ. eigenvalues --  -10.29380 -10.29340 -10.29007 -10.28716 -10.28606
 Alpha  occ. eigenvalues --  -10.28459 -10.28432 -10.28352 -10.28326 -10.28236
 Alpha  occ. eigenvalues --  -10.28114 -10.28012 -10.27708 -10.27682 -10.27679
 Alpha  occ. eigenvalues --  -10.27648 -10.27543 -10.27072 -10.27005 -10.26920
 Alpha  occ. eigenvalues --  -10.26421 -10.26412 -10.26389 -10.26292 -10.26231
 Alpha  occ. eigenvalues --  -10.26182 -10.26139 -10.26133 -10.26070 -10.26031
 Alpha  occ. eigenvalues --  -10.25965 -10.25909 -10.25865 -10.25743 -10.25606
 Alpha  occ. eigenvalues --  -10.25476 -10.25388 -10.25199 -10.25160 -10.24833
 Alpha  occ. eigenvalues --  -10.24614 -10.24446 -10.24252 -10.22567 -10.22340
 Alpha  occ. eigenvalues --   -3.12643  -1.87337  -1.86884  -1.86841  -1.18989
 Alpha  occ. eigenvalues --   -1.17300  -1.11187  -1.07873  -1.06406  -1.04666
 Alpha  occ. eigenvalues --   -1.03732  -1.02955  -1.02247  -0.92072  -0.91704
 Alpha  occ. eigenvalues --   -0.90717  -0.90062  -0.89219  -0.89099  -0.88629
 Alpha  occ. eigenvalues --   -0.88483  -0.88416  -0.87921  -0.86810  -0.86372
 Alpha  occ. eigenvalues --   -0.85280  -0.84449  -0.83876  -0.83531  -0.82486
 Alpha  occ. eigenvalues --   -0.82075  -0.81327  -0.81159  -0.80547  -0.77681
 Alpha  occ. eigenvalues --   -0.77496  -0.77036  -0.76804  -0.76093  -0.75748
 Alpha  occ. eigenvalues --   -0.74686  -0.74489  -0.74037  -0.73250  -0.72414
 Alpha  occ. eigenvalues --   -0.71255  -0.70362  -0.69706  -0.69056  -0.68420
 Alpha  occ. eigenvalues --   -0.67468  -0.66402  -0.64989  -0.64599  -0.64318
 Alpha  occ. eigenvalues --   -0.64054  -0.63630  -0.63234  -0.62250  -0.61840
 Alpha  occ. eigenvalues --   -0.61550  -0.60701  -0.60343  -0.60067  -0.59853
 Alpha  occ. eigenvalues --   -0.58418  -0.58135  -0.57729  -0.56848  -0.56389
 Alpha  occ. eigenvalues --   -0.56184  -0.55842  -0.55680  -0.54816  -0.54522
 Alpha  occ. eigenvalues --   -0.54245  -0.54036  -0.53635  -0.53415  -0.53188
 Alpha  occ. eigenvalues --   -0.52810  -0.52303  -0.52027  -0.51875  -0.51634
 Alpha  occ. eigenvalues --   -0.51405  -0.51229  -0.51169  -0.50903  -0.50743
 Alpha  occ. eigenvalues --   -0.50698  -0.50521  -0.50490  -0.50201  -0.50016
 Alpha  occ. eigenvalues --   -0.49346  -0.49025  -0.48742  -0.48581  -0.48361
 Alpha  occ. eigenvalues --   -0.48061  -0.47687  -0.47354  -0.47008  -0.46894
 Alpha  occ. eigenvalues --   -0.46855  -0.46526  -0.46266  -0.45939  -0.45812
 Alpha  occ. eigenvalues --   -0.45786  -0.45763  -0.45584  -0.45242  -0.45140
 Alpha  occ. eigenvalues --   -0.45032  -0.44831  -0.44673  -0.44645  -0.44235
 Alpha  occ. eigenvalues --   -0.44194  -0.43730  -0.43603  -0.43402  -0.43264
 Alpha  occ. eigenvalues --   -0.42933  -0.42680  -0.42462  -0.42357  -0.42199
 Alpha  occ. eigenvalues --   -0.42125  -0.41793  -0.41506  -0.41267  -0.41105
 Alpha  occ. eigenvalues --   -0.41025  -0.40574  -0.40171  -0.40002  -0.39812
 Alpha  occ. eigenvalues --   -0.39710  -0.39292  -0.39128  -0.39004  -0.38824
 Alpha  occ. eigenvalues --   -0.38601  -0.38266  -0.38012  -0.37742  -0.37643
 Alpha  occ. eigenvalues --   -0.37171  -0.36844  -0.36761  -0.36741  -0.36343
 Alpha  occ. eigenvalues --   -0.36191  -0.35923  -0.35870  -0.35717  -0.35387
 Alpha  occ. eigenvalues --   -0.35253  -0.34812  -0.34028  -0.33531  -0.33111
 Alpha  occ. eigenvalues --   -0.32734  -0.32419  -0.32139  -0.30526  -0.30329
 Alpha  occ. eigenvalues --   -0.30248  -0.28766  -0.28023  -0.26937  -0.23336
 Alpha  occ. eigenvalues --   -0.21086
 Alpha virt. eigenvalues --   -0.06576  -0.03046   0.01823   0.03829   0.05304
 Alpha virt. eigenvalues --    0.05615   0.06062   0.06738   0.07333   0.07503
 Alpha virt. eigenvalues --    0.08463   0.10089   0.10569   0.11085   0.11728

 Mulliken charges:
               1
     1  Mg   0.813470
     2  C    0.081984
     3  C   -0.209584
     4  C   -0.138413
     5  C   -0.184517
     6  N   -0.638541
     7  C    0.304334
     8  C   -0.168877
     9  C   -0.128663
    10  C    0.374464
    11  C   -0.302410
    12  C   -0.151861
    13  C   -0.252491
    14  C    0.621867
    15  O   -0.494157
    16  O   -0.489665
    17  N   -0.729893
    18  C    0.309465
    19  C    0.004389
    20  C   -0.021207
    21  C    0.343413
    22  C   -0.363997
    23  C   -0.088598
    24  C   -0.229496
    25  N   -0.677070
    26  C    0.289767
    27  C    0.001714
    28  C    0.021250
    29  C    0.267689
    30  C   -0.352220
    31  C   -0.224429
    32  C   -0.284955
    33  N   -0.714790
    34  C    0.270640
    35  C   -0.033147
    36  C    0.113835
    37  C    0.267994
    38  C   -0.351621
    39  C    0.354264
    40  O   -0.455900
    41  C   -0.349891
    42  C    0.591294
    43  O   -0.505532
    44  O   -0.425243
    45  C   -0.066460
    46  C    0.058532
    47  C   -0.130320
    48  C    0.111936
    49  C   -0.370842
    50  C   -0.224194
    51  C   -0.174763
    52  C   -0.154071
    53  C   -0.076713
    54  C   -0.299472
    55  C   -0.160155
    56  C   -0.174828
    57  C   -0.157196
    58  C   -0.068750
    59  C   -0.324632
    60  C   -0.169331
    61  C   -0.168390
    62  C   -0.150928
    63  C   -0.042588
    64  C   -0.318589
    65  C   -0.308964
    66  H    0.082301
    67  H    0.054513
    68  H    0.104134
    69  H    0.103919
    70  H    0.109061
    71  H    0.120698
    72  H    0.054028
    73  H    0.147910
    74  H    0.110174
    75  H    0.117993
    76  H    0.127587
    77  H    0.094539
    78  H    0.126772
    79  H    0.122714
    80  H    0.114115
    81  H    0.101793
    82  H    0.096682
    83  H    0.114334
    84  H    0.141353
    85  H    0.092204
    86  H    0.105036
    87  H    0.112272
    88  H    0.108886
    89  H    0.099424
    90  H    0.082851
    91  H    0.114854
    92  H    0.103372
    93  H    0.151395
    94  H    0.116108
    95  H    0.147239
    96  H    0.137497
    97  H    0.141508
    98  H    0.106734
    99  H    0.115405
   100  H    0.111931
   101  H    0.101552
   102  H    0.107096
   103  H    0.097596
   104  H    0.142554
   105  H    0.105176
   106  H    0.102434
   107  H    0.070152
   108  H    0.085141
   109  H    0.085988
   110  H    0.081673
   111  H    0.072261
   112  H    0.114578
   113  H    0.101521
   114  H    0.104250
   115  H    0.090385
   116  H    0.062932
   117  H    0.074066
   118  H    0.097419
   119  H    0.099715
   120  H    0.077808
   121  H    0.091022
   122  H    0.087024
   123  H    0.100815
   124  H    0.115508
   125  H    0.052876
   126  H    0.090880
   127  H    0.093621
   128  H    0.082841
   129  H    0.077189
   130  H    0.089856
   131  H    0.075958
   132  H    0.083009
   133  H    0.101176
   134  H    0.107955
   135  H    0.097961
   136  H    0.084943
   137  H    0.107782
 Sum of Mulliken charges =   0.00000

 Dipole moment (field-independent basis, Debye):
    X=              1.6935    Y=              4.6401    Z=             -0.7178  Tot=              4.9913
 Quadrupole moment (field-independent basis, Debye-Ang):
   XX=           -338.2947   YY=           -390.9815   ZZ=           -399.4360
   XY=            -21.8222   XZ=              5.6799   YZ=             -5.0915

 Normal termination of Gaussian 09 at Sun Jun 30 18:23:31 2019.
