 Gaussian 09, Revision D.01,
 Gaussian 09:  ES64L-G09RevD.01 24-Apr-2013

 -------------------------------------
 # td=(NStates=1) CAM-B3LYP/6-31G(d,p)
 -------------------------------------

 --
 TD
 --
 Symbolic Z-matrix:
 Charge =  0 Multiplicity = 1

                         Standard orientation:
 ---------------------------------------------------------------------
 Center     Atomic      Atomic             Coordinates (Angstroms)
 Number     Number       Type             X           Y           Z
 ---------------------------------------------------------------------
      1         12           0       -7.210502    0.602969    0.107534
      2          6           0       -4.898918   -1.936739    0.556885
      3          6           0       -4.856192    2.846607    1.314399
      4          6           0       -9.430933    3.093129   -0.341639
      5          6           0       -9.562678   -1.653223   -0.980755
      6          7           0       -5.158061    0.429992    0.748074
      7          6           0       -4.401219   -0.760258    0.805457
      8          6           0       -2.929884   -0.482516    1.280087
      9          6           0       -3.096374    1.066763    1.745635
     10          6           0       -4.435723    1.533549    1.176484
     11          6           0       -2.915983    1.330396    3.125649
     12          6           0       -1.851472   -0.682732    0.208918
     13          6           0       -0.469817   -0.308951    0.586641
     14          6           0        0.549216   -0.625620   -0.599567
     15          8           0        0.175361   -0.921462   -1.706779
     16          8           0        1.817378   -0.616725   -0.204925
     17          7           0       -7.033399    2.650021    0.427481
     18          6           0       -6.054442    3.384122    0.860165
     19          6           0       -6.356003    4.825951    0.958975
     20          6           0       -7.705802    4.834769    0.375626
     21          6           0       -8.171742    3.457941    0.194687
     22          6           0       -5.422045    5.943267    1.303932
     23          6           0       -8.556891    6.066585    0.106903
     24          6           0       -8.139576    7.253683    0.145465
     25          7           0       -9.118058    0.627304   -0.445289
     26          6           0       -9.964861    1.779289   -0.634519
     27          6           0      -11.222737    1.535352   -1.028018
     28          6           0      -11.304020    0.165123   -1.330547
     29          6           0       -9.948275   -0.332514   -0.845474
     30          6           0      -12.274807    2.481910   -1.344620
     31          6           0      -12.355201   -0.798573   -1.969012
     32          6           0      -12.089215   -0.989332   -3.433328
     33          7           0       -7.206717   -1.377080   -0.335089
     34          6           0       -8.277450   -2.226974   -0.670940
     35          6           0       -7.858894   -3.606825   -0.606565
     36          6           0       -6.569454   -3.606803   -0.195058
     37          6           0       -6.242688   -2.227885    0.054869
     38          6           0       -8.785385   -4.791976   -0.809169
     39          6           0       -5.343290   -4.314899    0.160833
     40          8           0       -5.282594   -5.564043    0.125333
     41          6           0       -4.239791   -3.245146    0.652593
     42          6           0       -3.530869   -3.721718    1.884822
     43          8           0       -3.734103   -3.198942    2.985253
     44          8           0       -2.720059   -4.777185    1.722100
     45          6           0       -2.242731   -5.173062    2.934893
     46          6           0        2.854151   -0.772273   -1.147537
     47          6           0        4.084799   -0.566564   -0.447296
     48          6           0        5.147661    0.333598   -0.831065
     49          6           0        5.152471    1.162302   -2.186858
     50          6           0        6.459284    0.277435   -0.043641
     51          6           0        7.694484   -0.298941   -0.790414
     52          6           0        8.983334   -0.225716   -0.030854
     53          6           0       10.215053   -0.683231   -0.803977
     54          6           0       10.105548   -2.204379   -1.161885
     55          6           0       11.460545   -0.355143   -0.045303
     56          6           0       12.804306   -0.548031   -0.613061
     57          6           0       13.940053   -0.146626    0.246611
     58          6           0       15.311821   -0.010657   -0.491592
     59          6           0       15.705218   -1.491881   -0.817885
     60          6           0       16.337173    0.670793    0.400023
     61          6           0       17.707258    0.787619   -0.201377
     62          6           0       18.861946    1.472614    0.589985
     63          6           0       20.249528    1.235711    0.167751
     64          6           0       20.418791    1.894752   -1.263053
     65          6           0       21.245454    1.899631    1.123480
     66          1           0       -4.018547    3.514392    1.615168
     67          1           0       -9.823714    3.980038   -0.726329
     68          1           0      -10.350385   -2.313280   -1.324208
     69          1           0       -2.634299   -1.192588    1.968821
     70          1           0       -2.281974    1.467306    1.129103
     71          1           0       -2.059390    0.846351    3.554329
     72          1           0       -2.876354    2.351767    3.503530
     73          1           0       -3.729061    0.814711    3.681288
     74          1           0       -2.081630   -1.606047   -0.205783
     75          1           0       -2.612095   -0.067817   -0.671693
     76          1           0       -0.400485    0.765634    1.060499
     77          1           0       -0.097268   -0.841824    1.307353
     78          1           0       -4.659335    6.189287    0.479207
     79          1           0       -5.906306    6.919082    1.612740
     80          1           0       -4.924485    5.783174    2.336172
     81          1           0       -9.742227    5.974480   -0.085520
     82          1           0       -8.986219    7.954471   -0.114364
     83          1           0       -7.064609    7.572770    0.395101
     84          1           0      -11.966115    3.019908   -2.371002
     85          1           0      -13.266200    1.928957   -1.227904
     86          1           0      -12.184749    3.282715   -0.478559
     87          1           0      -12.513021   -1.548330   -1.067381
     88          1           0      -13.259646   -0.110490   -1.688913
     89          1           0      -12.956492   -1.624759   -3.754044
     90          1           0      -11.888727    0.012544   -4.003928
     91          1           0      -11.150947   -1.418378   -3.521550
     92          1           0       -9.030507   -5.140167   -2.016689
     93          1           0       -8.207284   -5.742725   -0.716998
     94          1           0       -9.641175   -4.839684   -0.156975
     95          1           0       -3.401359   -3.557871   -0.087183
     96          1           0       -1.787709   -4.267018    3.456218
     97          1           0       -2.995012   -5.442396    3.614672
     98          1           0       -1.548822   -6.098015    2.790352
     99          1           0        2.612619   -1.830193   -1.626577
    100          1           0        2.666223   -0.260959   -2.093194
    101          1           0        4.181109   -1.200981    0.361304
    102          1           0        4.146492    1.119556   -2.613208
    103          1           0        5.346071    2.227433   -1.725731
    104          1           0        5.733227    0.450835   -2.807773
    105          1           0        6.725090    1.341930    0.152457
    106          1           0        6.366089   -0.090446    0.930182
    107          1           0        7.601797   -1.265082   -1.183626
    108          1           0        7.917749    0.169388   -1.920903
    109          1           0        9.161514    0.862371    0.232365
    110          1           0        8.760263   -0.802963    0.874007
    111          1           0       10.350334   -0.111832   -1.726616
    112          1           0        9.087963   -2.316352   -1.797730
    113          1           0       10.877568   -2.574452   -2.063387
    114          1           0       10.007413   -2.943383   -0.438968
    115          1           0       11.422962    0.568553    0.448332
    116          1           0       11.226957   -1.173124    0.731297
    117          1           0       12.977969   -1.544131   -1.099563
    118          1           0       12.647396    0.218922   -1.576350
    119          1           0       13.574881    0.933645    0.761063
    120          1           0       14.172068   -0.856155    1.173854
    121          1           0       15.277004    0.581852   -1.432893
    122          1           0       15.581593   -2.098029    0.113165
    123          1           0       14.778580   -1.884538   -1.317969
    124          1           0       16.624214   -1.536624   -1.404384
    125          1           0       15.775263    1.779687    0.742527
    126          1           0       16.427210    0.157655    1.335139
    127          1           0       18.021066   -0.391122   -0.628148
    128          1           0       17.490748    1.243123   -1.290941
    129          1           0       18.494921    2.509160    0.721201
    130          1           0       18.577742    1.200478    1.471090
    131          1           0       20.426496    0.178791    0.026776
    132          1           0       20.378417    2.999127   -1.213332
    133          1           0       21.502550    1.765513   -1.598677
    134          1           0       19.771376    1.240101   -1.947322
    135          1           0       21.248345    1.587276    2.172233
    136          1           0       22.350495    1.871103    0.753038
    137          1           0       21.151789    3.125044    1.016673
 ---------------------------------------------------------------------

 SCF Done:  E(RCAM-B3LYP) =  -2932.58245295     A.U. after   15 cycles

 Excitation energies and oscillator strengths:

 Excited State   1:      Singlet-A      2.0467 eV  605.78 nm  f=0.2496  <S**2>=0.000
     240 -> 243        0.23041
     241 -> 242        0.66165
 This state for optimization and/or second-order correction.
 Total Energy, E(TD-HF/TD-KS) =  -2932.50723861
 Copying the excited state density for this state as the 1-particle RhoCI density.

 The electronic state is 1-A.
 Alpha  occ. eigenvalues --  -46.84174 -19.27354 -19.26304 -19.20585 -19.20527
 Alpha  occ. eigenvalues --  -19.19916 -14.40770 -14.39817 -14.39564 -14.39081
 Alpha  occ. eigenvalues --  -10.39346 -10.39273 -10.35556 -10.31850 -10.30611
 Alpha  occ. eigenvalues --  -10.30610 -10.30051 -10.29740 -10.29669 -10.29557
 Alpha  occ. eigenvalues --  -10.29428 -10.29388 -10.29161 -10.29074 -10.29046
 Alpha  occ. eigenvalues --  -10.28564 -10.28536 -10.28362 -10.28271 -10.28224
 Alpha  occ. eigenvalues --  -10.28063 -10.27955 -10.27817 -10.27813 -10.27576
 Alpha  occ. eigenvalues --  -10.27532 -10.27509 -10.27467 -10.27451 -10.27209
 Alpha  occ. eigenvalues --  -10.26951 -10.26942 -10.26936 -10.26755 -10.26673
 Alpha  occ. eigenvalues --  -10.26517 -10.26502 -10.26469 -10.26416 -10.26364
 Alpha  occ. eigenvalues --  -10.26357 -10.26268 -10.26191 -10.26115 -10.25952
 Alpha  occ. eigenvalues --  -10.25905 -10.25901 -10.25772 -10.25388 -10.25055
 Alpha  occ. eigenvalues --  -10.24947 -10.24889 -10.24321 -10.24237 -10.23732
 Alpha  occ. eigenvalues --   -3.13214  -1.87920  -1.87470  -1.87384  -1.20536
 Alpha  occ. eigenvalues --   -1.19169  -1.09727  -1.08970  -1.08739  -1.04068
 Alpha  occ. eigenvalues --   -1.03511  -1.02880  -1.00881  -0.92613  -0.91977
 Alpha  occ. eigenvalues --   -0.90573  -0.90102  -0.89758  -0.89569  -0.89098
 Alpha  occ. eigenvalues --   -0.88719  -0.88274  -0.87858  -0.86756  -0.86506
 Alpha  occ. eigenvalues --   -0.85729  -0.84422  -0.84214  -0.83738  -0.83364
 Alpha  occ. eigenvalues --   -0.81913  -0.81329  -0.80751  -0.80027  -0.78349
 Alpha  occ. eigenvalues --   -0.77553  -0.76822  -0.76294  -0.75993  -0.75594
 Alpha  occ. eigenvalues --   -0.75033  -0.74805  -0.74278  -0.73168  -0.72496
 Alpha  occ. eigenvalues --   -0.71876  -0.70296  -0.69845  -0.68986  -0.67631
 Alpha  occ. eigenvalues --   -0.66734  -0.65792  -0.65277  -0.64849  -0.64411
 Alpha  occ. eigenvalues --   -0.64269  -0.63665  -0.63636  -0.62843  -0.62412
 Alpha  occ. eigenvalues --   -0.62269  -0.60917  -0.60443  -0.59227  -0.58933
 Alpha  occ. eigenvalues --   -0.58461  -0.57732  -0.57707  -0.56908  -0.56575
 Alpha  occ. eigenvalues --   -0.56154  -0.56061  -0.55709  -0.55087  -0.55057
 Alpha  occ. eigenvalues --   -0.54415  -0.54247  -0.53816  -0.53587  -0.53213
 Alpha  occ. eigenvalues --   -0.52872  -0.52503  -0.52284  -0.51838  -0.51367
 Alpha  occ. eigenvalues --   -0.51235  -0.51148  -0.50941  -0.50683  -0.50590
 Alpha  occ. eigenvalues --   -0.50323  -0.50136  -0.49975  -0.49866  -0.49784
 Alpha  occ. eigenvalues --   -0.49321  -0.49150  -0.48767  -0.48646  -0.48396
 Alpha  occ. eigenvalues --   -0.48106  -0.47924  -0.47687  -0.47473  -0.47434
 Alpha  occ. eigenvalues --   -0.47395  -0.47244  -0.46909  -0.46745  -0.46346
 Alpha  occ. eigenvalues --   -0.46232  -0.45938  -0.45762  -0.45319  -0.45143
 Alpha  occ. eigenvalues --   -0.44710  -0.44660  -0.44295  -0.44203  -0.44124
 Alpha  occ. eigenvalues --   -0.43824  -0.43700  -0.43340  -0.43241  -0.43057
 Alpha  occ. eigenvalues --   -0.43037  -0.42749  -0.42430  -0.42113  -0.42020
 Alpha  occ. eigenvalues --   -0.41924  -0.41764  -0.41515  -0.41107  -0.40800
 Alpha  occ. eigenvalues --   -0.40798  -0.40360  -0.40057  -0.40041  -0.39816
 Alpha  occ. eigenvalues --   -0.39739  -0.39609  -0.39375  -0.39303  -0.38749
 Alpha  occ. eigenvalues --   -0.38402  -0.38155  -0.38110  -0.38003  -0.37817
 Alpha  occ. eigenvalues --   -0.37076  -0.36621  -0.36616  -0.36460  -0.36420
 Alpha  occ. eigenvalues --   -0.36180  -0.35755  -0.35602  -0.35515  -0.35306
 Alpha  occ. eigenvalues --   -0.35203  -0.34243  -0.34100  -0.33652  -0.33563
 Alpha  occ. eigenvalues --   -0.33370  -0.32940  -0.31765  -0.31147  -0.29954
 Alpha  occ. eigenvalues --   -0.29426  -0.28739  -0.28621  -0.27310  -0.23021
 Alpha  occ. eigenvalues --   -0.21627
 Alpha virt. eigenvalues --   -0.06903  -0.03000   0.01992   0.04040   0.04405
 Alpha virt. eigenvalues --    0.05705   0.06220   0.06578   0.07168   0.07557
 Alpha virt. eigenvalues --    0.08318   0.10083   0.11042   0.11339   0.11398

 Mulliken charges:
               1
     1  Mg   0.819972
     2  C    0.142618
     3  C   -0.204006
     4  C   -0.181215
     5  C   -0.184799
     6  N   -0.658775
     7  C    0.264889
     8  C   -0.152531
     9  C   -0.138409
    10  C    0.348133
    11  C   -0.306146
    12  C   -0.153357
    13  C   -0.263057
    14  C    0.591391
    15  O   -0.459897
    16  O   -0.453072
    17  N   -0.701495
    18  C    0.348561
    19  C    0.032028
    20  C   -0.039082
    21  C    0.272748
    22  C   -0.392601
    23  C   -0.047678
    24  C   -0.238265
    25  N   -0.683263
    26  C    0.280160
    27  C    0.049598
    28  C   -0.020513
    29  C    0.311719
    30  C   -0.360878
    31  C   -0.230080
    32  C   -0.300842
    33  N   -0.698446
    34  C    0.251419
    35  C    0.001874
    36  C    0.091725
    37  C    0.238706
    38  C   -0.387433
    39  C    0.349682
    40  O   -0.477799
    41  C   -0.353983
    42  C    0.636978
    43  O   -0.492584
    44  O   -0.411776
    45  C   -0.090194
    46  C   -0.000308
    47  C   -0.108410
    48  C    0.037159
    49  C   -0.343350
    50  C   -0.209905
    51  C   -0.176377
    52  C   -0.159520
    53  C   -0.064976
    54  C   -0.314254
    55  C   -0.147684
    56  C   -0.153539
    57  C   -0.159027
    58  C   -0.054219
    59  C   -0.312145
    60  C   -0.140699
    61  C   -0.181427
    62  C   -0.133315
    63  C   -0.057680
    64  C   -0.307168
    65  C   -0.303617
    66  H    0.081176
    67  H    0.094121
    68  H    0.097248
    69  H    0.114130
    70  H    0.100457
    71  H    0.106493
    72  H    0.108087
    73  H    0.119907
    74  H    0.124191
    75  H    0.065076
    76  H    0.127790
    77  H    0.145632
    78  H    0.131360
    79  H    0.120700
    80  H    0.115030
    81  H    0.085513
    82  H    0.092058
    83  H    0.100062
    84  H    0.119482
    85  H    0.117204
    86  H    0.104822
    87  H    0.124408
    88  H    0.089475
    89  H    0.116340
    90  H    0.115564
    91  H    0.133618
    92  H    0.086130
    93  H    0.148680
    94  H    0.134702
    95  H    0.161103
    96  H    0.115438
    97  H    0.136513
    98  H    0.107773
    99  H    0.103747
   100  H    0.124045
   101  H    0.094640
   102  H    0.118031
   103  H    0.125238
   104  H    0.147505
   105  H    0.095307
   106  H    0.113069
   107  H    0.109347
   108  H    0.056857
   109  H    0.087513
   110  H    0.096649
   111  H    0.082646
   112  H    0.080603
   113  H    0.080720
   114  H    0.123759
   115  H    0.092279
   116  H    0.065650
   117  H    0.100631
   118  H    0.055608
   119  H    0.055452
   120  H    0.084725
   121  H    0.090187
   122  H    0.099914
   123  H    0.094515
   124  H    0.110723
   125  H    0.044875
   126  H    0.092789
   127  H    0.043410
   128  H    0.069622
   129  H    0.092053
   130  H    0.099597
   131  H    0.098278
   132  H    0.107887
   133  H    0.084760
   134  H    0.106458
   135  H    0.107938
   136  H    0.089750
   137  H    0.073380
 Sum of Mulliken charges =   0.00000

 Dipole moment (field-independent basis, Debye):
    X=              0.9419    Y=              4.4160    Z=              0.2276  Tot=              4.5211
 Quadrupole moment (field-independent basis, Debye-Ang):
   XX=           -328.8806   YY=           -396.3187   ZZ=           -400.4074
   XY=            -25.6411   XZ=             19.9942   YZ=              0.3968

 Normal termination of Gaussian 09 at Thu Jun 27 11:55:31 2019.
