 Gaussian 09, Revision D.01,
 Gaussian 09:  ES64L-G09RevD.01 24-Apr-2013

 -------------------------------------
 # td=(NStates=1) CAM-B3LYP/6-31G(d,p)
 -------------------------------------

 --
 TD
 --
 Symbolic Z-matrix:
 Charge =  0 Multiplicity = 1

                         Standard orientation:
 ---------------------------------------------------------------------
 Center     Atomic      Atomic             Coordinates (Angstroms)
 Number     Number       Type             X           Y           Z
 ---------------------------------------------------------------------
      1         12           0       -7.226743    0.613095    0.202771
      2          6           0       -4.835043   -1.976008    0.531682
      3          6           0       -4.959926    2.852106    1.296181
      4          6           0       -9.513725    3.034617   -0.357526
      5          6           0       -9.496823   -1.819777   -0.974332
      6          7           0       -5.135479    0.428855    0.779290
      7          6           0       -4.388464   -0.657886    0.884325
      8          6           0       -2.962646   -0.381682    1.263602
      9          6           0       -3.062063    1.150448    1.720130
     10          6           0       -4.455954    1.543202    1.226523
     11          6           0       -3.034142    1.371035    3.225952
     12          6           0       -1.934987   -0.597060    0.155498
     13          6           0       -0.400522   -0.447824    0.599684
     14          6           0        0.527232   -0.669223   -0.591880
     15          8           0        0.322169   -1.138995   -1.628575
     16          8           0        1.803532   -0.391812   -0.058620
     17          7           0       -7.123797    2.564621    0.377563
     18          6           0       -6.170880    3.334080    0.887262
     19          6           0       -6.542019    4.678407    0.932673
     20          6           0       -7.814759    4.758631    0.473904
     21          6           0       -8.269397    3.476092    0.218823
     22          6           0       -5.758766    5.845391    1.405131
     23          6           0       -8.757967    5.933075    0.256530
     24          6           0       -8.429693    7.252995    0.037062
     25          7           0       -9.133519    0.672715   -0.568785
     26          6           0       -9.993168    1.728199   -0.728105
     27          6           0      -11.312201    1.334029   -1.192317
     28          6           0      -11.242136   -0.053706   -1.260695
     29          6           0       -9.905093   -0.438674   -0.881032
     30          6           0      -12.275884    2.369178   -1.562078
     31          6           0      -12.470704   -0.829296   -1.847742
     32          6           0      -12.520184   -0.957512   -3.330717
     33          7           0       -7.246403   -1.369934   -0.103739
     34          6           0       -8.219867   -2.254055   -0.557666
     35          6           0       -7.754911   -3.611714   -0.488297
     36          6           0       -6.468480   -3.519051   -0.061347
     37          6           0       -6.207837   -2.171637    0.203512
     38          6           0       -8.535681   -4.863662   -0.822095
     39          6           0       -5.299394   -4.363728    0.337339
     40          8           0       -5.100386   -5.617655    0.256070
     41          6           0       -4.121052   -3.281757    0.584645
     42          6           0       -3.392199   -3.584550    1.848245
     43          8           0       -3.530039   -3.178595    2.988267
     44          8           0       -2.572206   -4.673521    1.714086
     45          6           0       -2.000782   -5.191604    2.886528
     46          6           0        2.830391   -0.602500   -1.137836
     47          6           0        4.137638   -0.306601   -0.431615
     48          6           0        5.178159    0.394884   -0.996615
     49          6           0        5.145237    1.121457   -2.272140
     50          6           0        6.553494    0.399645   -0.293960
     51          6           0        7.660226   -0.027203   -1.095060
     52          6           0        8.935166   -0.042581   -0.208111
     53          6           0       10.226302   -0.592994   -1.006940
     54          6           0       10.136663   -2.055559   -1.439596
     55          6           0       11.462164   -0.287559   -0.122020
     56          6           0       12.826005   -0.466509   -0.882037
     57          6           0       14.028230   -0.044570    0.114361
     58          6           0       15.331682   -0.175117   -0.597937
     59          6           0       15.772866   -1.585088   -0.901473
     60          6           0       16.281342    0.512231    0.304847
     61          6           0       17.766310    0.686974   -0.121868
     62          6           0       18.855653    1.313089    0.873695
     63          6           0       20.280611    1.326198    0.285180
     64          6           0       20.329785    2.202844   -0.987934
     65          6           0       21.190977    1.700998    1.386991
     66          1           0       -4.238921    3.629974    1.669996
     67          1           0      -10.191588    3.934315   -0.578655
     68          1           0      -10.136551   -2.744695   -1.051490
     69          1           0       -2.659740   -1.065636    2.153100
     70          1           0       -2.207039    1.795379    1.303592
     71          1           0       -2.120480    0.811688    3.603654
     72          1           0       -3.067119    2.206406    3.855553
     73          1           0       -3.711448    0.903533    3.796135
     74          1           0       -2.167608   -1.497647   -0.252369
     75          1           0       -1.952970    0.197510   -0.768372
     76          1           0       -0.187914    0.482186    1.136945
     77          1           0       -0.142099   -1.268938    1.369758
     78          1           0       -4.994204    6.307549    0.736949
     79          1           0       -6.211031    6.581793    1.824288
     80          1           0       -5.163749    5.686648    2.397262
     81          1           0      -10.004038    5.765716    0.161586
     82          1           0       -9.193950    7.922227   -0.426022
     83          1           0       -7.488385    7.614899    0.022931
     84          1           0      -11.920324    3.090987   -2.378533
     85          1           0      -13.346716    1.943173   -1.946587
     86          1           0      -12.588029    2.925130   -0.663103
     87          1           0      -12.333313   -1.853034   -1.466423
     88          1           0      -13.426415   -0.437217   -1.564578
     89          1           0      -13.516744   -1.670248   -3.745169
     90          1           0      -12.536901   -0.087847   -3.980783
     91          1           0      -11.737527   -1.660146   -3.793087
     92          1           0       -8.697115   -4.698959   -1.982707
     93          1           0       -7.740806   -5.610663   -0.595696
     94          1           0       -9.556443   -4.890203   -0.329191
     95          1           0       -3.375669   -3.748897   -0.273111
     96          1           0       -1.784763   -4.382651    3.418359
     97          1           0       -2.727845   -5.756109    3.531712
     98          1           0       -1.032519   -5.813925    2.592977
     99          1           0        2.695922   -1.509504   -1.772417
    100          1           0        2.737031    0.154130   -1.894987
    101          1           0        4.501067   -1.026042    0.447525
    102          1           0        4.216468    1.007878   -2.827264
    103          1           0        5.330827    2.288874   -2.116478
    104          1           0        5.966258    0.545297   -2.937005
    105          1           0        6.718813    1.561897    0.027842
    106          1           0        6.395951   -0.208873    0.574666
    107          1           0        7.336678   -0.909941   -1.671633
    108          1           0        7.763317    0.585053   -2.070020
    109          1           0        9.119968    0.849012    0.100990
    110          1           0        8.824013   -0.637957    0.878437
    111          1           0       10.204093    0.020874   -1.882806
    112          1           0        9.233538   -2.220696   -1.983596
    113          1           0       10.969952   -2.421258   -1.951860
    114          1           0       10.139271   -2.690677   -0.536592
    115          1           0       11.576897    0.591441    0.172756
    116          1           0       11.475576   -0.963971    0.753495
    117          1           0       12.998310   -1.609668   -1.022684
    118          1           0       12.868801    0.070961   -1.871287
    119          1           0       14.025711    1.096305    0.366309
    120          1           0       14.199183   -0.839468    0.967139
    121          1           0       15.389380    0.215263   -1.565628
    122          1           0       15.857211   -2.234459   -0.004814
    123          1           0       15.041802   -1.705382   -1.836047
    124          1           0       16.771901   -1.667627   -1.287032
    125          1           0       15.897178    1.453434    0.619408
    126          1           0       16.517713    0.039095    1.268450
    127          1           0       18.404431   -0.206090   -0.622866
    128          1           0       17.824879    1.377908   -1.125719
    129          1           0       18.350167    2.256732    1.258718
    130          1           0       18.880044    0.555907    1.684915
    131          1           0       20.594866    0.549713   -0.139501
    132          1           0       19.828458    3.271762   -0.947644
    133          1           0       21.367721    2.509029   -1.091047
    134          1           0       19.744258    1.648289   -1.819432
    135          1           0       21.252248    0.823110    2.182649
    136          1           0       22.403202    1.837957    1.258135
    137          1           0       20.854895    2.724375    1.908639
 ---------------------------------------------------------------------

 SCF Done:  E(RCAM-B3LYP) =  -2932.61227846     A.U. after   16 cycles

 Excitation energies and oscillator strengths:

 Excited State   1:      Singlet-A      2.0456 eV  606.11 nm  f=0.2040  <S**2>=0.000
     240 -> 243        0.28653
     241 -> 242        0.64078
 This state for optimization and/or second-order correction.
 Total Energy, E(TD-HF/TD-KS) =  -2932.53710554
 Copying the excited state density for this state as the 1-particle RhoCI density.

 The electronic state is 1-A.
 Alpha  occ. eigenvalues --  -46.84045 -19.24965 -19.24864 -19.22601 -19.21638
 Alpha  occ. eigenvalues --  -19.20694 -14.42045 -14.40051 -14.39813 -14.39099
 Alpha  occ. eigenvalues --  -10.39298 -10.39077 -10.37188 -10.31487 -10.31435
 Alpha  occ. eigenvalues --  -10.31290 -10.30796 -10.30085 -10.29984 -10.29913
 Alpha  occ. eigenvalues --  -10.29605 -10.29495 -10.29270 -10.29195 -10.29006
 Alpha  occ. eigenvalues --  -10.28846 -10.28815 -10.28765 -10.28561 -10.28377
 Alpha  occ. eigenvalues --  -10.28280 -10.27992 -10.27729 -10.27616 -10.27532
 Alpha  occ. eigenvalues --  -10.27499 -10.27415 -10.27381 -10.27090 -10.26913
 Alpha  occ. eigenvalues --  -10.26842 -10.26836 -10.26798 -10.26679 -10.26662
 Alpha  occ. eigenvalues --  -10.26478 -10.26358 -10.26341 -10.26215 -10.26058
 Alpha  occ. eigenvalues --  -10.25979 -10.25926 -10.25881 -10.25818 -10.25787
 Alpha  occ. eigenvalues --  -10.25769 -10.25464 -10.25327 -10.24792 -10.24743
 Alpha  occ. eigenvalues --  -10.24427 -10.24252 -10.24184 -10.23553 -10.23409
 Alpha  occ. eigenvalues --   -3.13223  -1.87913  -1.87463  -1.87421  -1.18584
 Alpha  occ. eigenvalues --   -1.18117  -1.09382  -1.08925  -1.08117  -1.05289
 Alpha  occ. eigenvalues --   -1.04316  -1.03630  -1.02609  -0.92941  -0.91596
 Alpha  occ. eigenvalues --   -0.91358  -0.89579  -0.89456  -0.89268  -0.88656
 Alpha  occ. eigenvalues --   -0.88578  -0.88227  -0.87778  -0.87202  -0.85829
 Alpha  occ. eigenvalues --   -0.85168  -0.84044  -0.83725  -0.82675  -0.82330
 Alpha  occ. eigenvalues --   -0.81600  -0.80902  -0.80379  -0.79843  -0.78742
 Alpha  occ. eigenvalues --   -0.78215  -0.77289  -0.76348  -0.76234  -0.75770
 Alpha  occ. eigenvalues --   -0.75244  -0.74916  -0.74166  -0.73152  -0.72552
 Alpha  occ. eigenvalues --   -0.72076  -0.70797  -0.69050  -0.68565  -0.67977
 Alpha  occ. eigenvalues --   -0.66844  -0.66070  -0.65509  -0.64743  -0.64535
 Alpha  occ. eigenvalues --   -0.64184  -0.64000  -0.63056  -0.62909  -0.62323
 Alpha  occ. eigenvalues --   -0.61771  -0.60981  -0.60178  -0.59854  -0.58780
 Alpha  occ. eigenvalues --   -0.58558  -0.58388  -0.57760  -0.56902  -0.56358
 Alpha  occ. eigenvalues --   -0.55873  -0.55525  -0.55272  -0.55261  -0.54331
 Alpha  occ. eigenvalues --   -0.54150  -0.53893  -0.53716  -0.53359  -0.53054
 Alpha  occ. eigenvalues --   -0.52862  -0.52500  -0.52425  -0.52249  -0.52009
 Alpha  occ. eigenvalues --   -0.51451  -0.51277  -0.51015  -0.50588  -0.50480
 Alpha  occ. eigenvalues --   -0.50395  -0.50259  -0.49989  -0.49626  -0.49340
 Alpha  occ. eigenvalues --   -0.49127  -0.49065  -0.48955  -0.48714  -0.48468
 Alpha  occ. eigenvalues --   -0.47883  -0.47636  -0.47289  -0.47001  -0.46956
 Alpha  occ. eigenvalues --   -0.46829  -0.46734  -0.46502  -0.46394  -0.46090
 Alpha  occ. eigenvalues --   -0.45893  -0.45780  -0.45414  -0.45230  -0.44867
 Alpha  occ. eigenvalues --   -0.44721  -0.44538  -0.44435  -0.44362  -0.44014
 Alpha  occ. eigenvalues --   -0.43887  -0.43779  -0.43558  -0.43373  -0.43192
 Alpha  occ. eigenvalues --   -0.42925  -0.42578  -0.42527  -0.42452  -0.42287
 Alpha  occ. eigenvalues --   -0.41983  -0.41959  -0.41774  -0.41601  -0.41434
 Alpha  occ. eigenvalues --   -0.41150  -0.40503  -0.40440  -0.40194  -0.40178
 Alpha  occ. eigenvalues --   -0.40044  -0.39755  -0.39617  -0.39410  -0.39216
 Alpha  occ. eigenvalues --   -0.39027  -0.38249  -0.38041  -0.37851  -0.37597
 Alpha  occ. eigenvalues --   -0.37573  -0.37551  -0.37285  -0.36928  -0.36619
 Alpha  occ. eigenvalues --   -0.36365  -0.36245  -0.35882  -0.35618  -0.35578
 Alpha  occ. eigenvalues --   -0.35055  -0.34952  -0.34836  -0.34087  -0.34026
 Alpha  occ. eigenvalues --   -0.33488  -0.32709  -0.32290  -0.31165  -0.30618
 Alpha  occ. eigenvalues --   -0.30399  -0.29002  -0.28662  -0.27907  -0.23152
 Alpha  occ. eigenvalues --   -0.21734
 Alpha virt. eigenvalues --   -0.06783  -0.03789   0.00604   0.03383   0.04806
 Alpha virt. eigenvalues --    0.05503   0.05571   0.05948   0.06672   0.07219
 Alpha virt. eigenvalues --    0.08211   0.10316   0.10752   0.11126   0.11803

 Mulliken charges:
               1
     1  Mg   0.827340
     2  C    0.043216
     3  C   -0.212900
     4  C   -0.184354
     5  C   -0.153833
     6  N   -0.633088
     7  C    0.333978
     8  C   -0.176056
     9  C   -0.151697
    10  C    0.337204
    11  C   -0.324146
    12  C   -0.159776
    13  C   -0.277932
    14  C    0.620734
    15  O   -0.423235
    16  O   -0.514114
    17  N   -0.737132
    18  C    0.385758
    19  C    0.016590
    20  C    0.058325
    21  C    0.232300
    22  C   -0.383250
    23  C   -0.092463
    24  C   -0.236456
    25  N   -0.671487
    26  C    0.273533
    27  C    0.087698
    28  C   -0.025395
    29  C    0.275668
    30  C   -0.387839
    31  C   -0.208254
    32  C   -0.292213
    33  N   -0.718537
    34  C    0.250609
    35  C    0.002393
    36  C   -0.010560
    37  C    0.320852
    38  C   -0.365352
    39  C    0.392313
    40  O   -0.473192
    41  C   -0.326662
    42  C    0.619074
    43  O   -0.489560
    44  O   -0.456711
    45  C   -0.069008
    46  C   -0.001411
    47  C   -0.132943
    48  C    0.103288
    49  C   -0.346673
    50  C   -0.183941
    51  C   -0.191150
    52  C   -0.154652
    53  C   -0.073098
    54  C   -0.311366
    55  C   -0.150494
    56  C   -0.210220
    57  C   -0.160655
    58  C   -0.055444
    59  C   -0.302621
    60  C   -0.174546
    61  C   -0.198868
    62  C   -0.163674
    63  C   -0.019100
    64  C   -0.314921
    65  C   -0.301889
    66  H    0.086540
    67  H    0.085485
    68  H    0.100253
    69  H    0.135408
    70  H    0.106396
    71  H    0.089120
    72  H    0.119034
    73  H    0.130574
    74  H    0.126646
    75  H    0.091908
    76  H    0.140705
    77  H    0.136464
    78  H    0.119651
    79  H    0.134303
    80  H    0.092355
    81  H    0.087204
    82  H    0.102940
    83  H    0.107224
    84  H    0.128179
    85  H    0.091036
    86  H    0.129158
    87  H    0.101334
    88  H    0.118710
    89  H    0.053232
    90  H    0.118796
    91  H    0.101866
    92  H    0.122725
    93  H    0.158305
    94  H    0.129945
    95  H    0.172960
    96  H    0.135490
    97  H    0.119125
    98  H    0.106165
    99  H    0.141540
   100  H    0.113779
   101  H    0.077720
   102  H    0.112023
   103  H    0.109681
   104  H    0.103090
   105  H    0.072688
   106  H    0.105036
   107  H    0.098522
   108  H    0.088529
   109  H    0.111611
   110  H    0.057946
   111  H    0.084057
   112  H    0.103623
   113  H    0.111850
   114  H    0.095429
   115  H    0.097164
   116  H    0.088371
   117  H    0.092679
   118  H    0.090017
   119  H    0.083898
   120  H    0.090889
   121  H    0.093015
   122  H    0.094202
   123  H    0.087381
   124  H    0.110190
   125  H    0.092354
   126  H    0.089554
   127  H    0.066439
   128  H    0.052003
   129  H    0.095170
   130  H    0.087831
   131  H    0.107766
   132  H    0.078902
   133  H    0.103657
   134  H    0.100736
   135  H    0.088878
   136  H    0.073620
   137  H    0.090926
 Sum of Mulliken charges =   0.00000

 Dipole moment (field-independent basis, Debye):
    X=              0.6854    Y=              4.6266    Z=             -0.3615  Tot=              4.6910
 Quadrupole moment (field-independent basis, Debye-Ang):
   XX=           -343.1719   YY=           -397.7812   ZZ=           -397.5185
   XY=            -24.1441   XZ=              6.6112   YZ=              0.1466

 Normal termination of Gaussian 09 at Fri Jun 28 20:12:44 2019.
