 Gaussian 09, Revision D.01,
 Gaussian 09:  ES64L-G09RevD.01 24-Apr-2013

 -------------------------------------
 # td=(NStates=1) CAM-B3LYP/6-31G(d,p)
 -------------------------------------

 --
 TD
 --
 Symbolic Z-matrix:
 Charge =  0 Multiplicity = 1

                         Standard orientation:
 ---------------------------------------------------------------------
 Center     Atomic      Atomic             Coordinates (Angstroms)
 Number     Number       Type             X           Y           Z
 ---------------------------------------------------------------------
      1         12           0       -7.167472    0.590430    0.150856
      2          6           0       -4.750541   -1.999675    0.598355
      3          6           0       -4.768747    2.790657    1.134477
      4          6           0       -9.461923    3.064883   -0.331415
      5          6           0       -9.554093   -1.823687   -0.797186
      6          7           0       -5.106472    0.399760    0.756869
      7          6           0       -4.288391   -0.722801    0.830104
      8          6           0       -2.919252   -0.367961    1.199849
      9          6           0       -3.047552    1.054996    1.616592
     10          6           0       -4.427923    1.475282    1.194852
     11          6           0       -2.828129    1.401928    3.137857
     12          6           0       -1.939918   -0.590471    0.032887
     13          6           0       -0.431468   -0.359692    0.407346
     14          6           0        0.566321   -0.593134   -0.720196
     15          8           0        0.255040   -1.056811   -1.725506
     16          8           0        1.829720   -0.331509   -0.280756
     17          7           0       -7.163676    2.677300    0.369514
     18          6           0       -6.094347    3.368880    0.837740
     19          6           0       -6.548561    4.724498    0.851115
     20          6           0       -7.814302    4.849341    0.431308
     21          6           0       -8.252722    3.441190    0.169973
     22          6           0       -5.537206    5.848789    1.161596
     23          6           0       -8.759113    5.939666    0.327315
     24          6           0       -8.385439    7.311742    0.177458
     25          7           0       -9.194502    0.627093   -0.506074
     26          6           0       -9.938510    1.721062   -0.643724
     27          6           0      -11.162517    1.436511   -1.074412
     28          6           0      -11.272450    0.037814   -1.172726
     29          6           0       -9.901831   -0.433563   -0.900844
     30          6           0      -12.212885    2.470053   -1.471157
     31          6           0      -12.452058   -0.748155   -1.553152
     32          6           0      -12.205394   -1.188001   -3.090177
     33          7           0       -7.202304   -1.411129   -0.115953
     34          6           0       -8.189666   -2.264609   -0.534881
     35          6           0       -7.778810   -3.607688   -0.572783
     36          6           0       -6.414794   -3.543597   -0.056070
     37          6           0       -6.114529   -2.135363    0.084025
     38          6           0       -8.585450   -4.840993   -0.822829
     39          6           0       -5.286030   -4.356701    0.183852
     40          8           0       -5.143724   -5.595932    0.012658
     41          6           0       -4.023634   -3.251594    0.567466
     42          6           0       -3.490324   -3.701775    1.884253
     43          8           0       -3.724166   -3.055186    2.909765
     44          8           0       -2.849697   -4.769957    1.744612
     45          6           0       -2.229524   -5.246556    3.047942
     46          6           0        2.906448   -0.582873   -1.231851
     47          6           0        4.195567   -0.368593   -0.595155
     48          6           0        5.151431    0.399519   -0.929849
     49          6           0        5.060119    1.313099   -2.211807
     50          6           0        6.522622    0.431832   -0.192776
     51          6           0        7.711748   -0.085815   -1.039767
     52          6           0        8.848132   -0.252688   -0.189344
     53          6           0       10.171116   -0.609786   -0.987705
     54          6           0       10.074044   -2.090960   -1.433827
     55          6           0       11.320591   -0.290896    0.033678
     56          6           0       12.764482   -0.425382   -0.622155
     57          6           0       13.978131   -0.097258    0.233968
     58          6           0       15.348371   -0.147671   -0.503590
     59          6           0       15.648296   -1.588577   -0.933364
     60          6           0       16.359552    0.489177    0.462918
     61          6           0       17.746250    0.567703   -0.144468
     62          6           0       18.736424    1.236856    0.802890
     63          6           0       20.253363    1.241973    0.358992
     64          6           0       20.458545    2.023600   -1.024058
     65          6           0       21.093945    1.864107    1.362930
     66          1           0       -3.950146    3.392998    1.344831
     67          1           0      -10.252029    3.910053   -0.593072
     68          1           0      -10.451187   -2.483005   -0.864172
     69          1           0       -2.754099   -1.097435    1.957471
     70          1           0       -2.252523    1.736642    1.039020
     71          1           0       -1.854626    1.054470    3.462720
     72          1           0       -2.685212    2.560855    3.190611
     73          1           0       -3.809243    1.107637    3.874397
     74          1           0       -2.061062   -1.658269   -0.275390
     75          1           0       -2.111146    0.053843   -0.952614
     76          1           0       -0.073113    0.611860    0.852605
     77          1           0       -0.109587   -0.892035    1.178770
     78          1           0       -5.061625    6.326716    0.102398
     79          1           0       -6.217170    6.646338    2.059263
     80          1           0       -4.793136    5.553746    1.838343
     81          1           0       -9.855192    5.704510    0.827528
     82          1           0       -9.091782    8.178921    0.333379
     83          1           0       -7.564425    7.517787   -0.461281
     84          1           0      -12.106607    2.761586   -2.582237
     85          1           0      -13.141607    2.036608   -1.481923
     86          1           0      -12.273805    3.347308   -0.674237
     87          1           0      -12.574970   -1.730596   -0.883280
     88          1           0      -13.347868   -0.268994   -1.561354
     89          1           0      -13.090784   -1.795637   -3.373288
     90          1           0      -12.101244   -0.387978   -3.968858
     91          1           0      -11.329611   -1.705364   -3.234871
     92          1           0       -8.902512   -4.856527   -1.893071
     93          1           0       -8.050577   -5.772460   -0.619186
     94          1           0       -9.520133   -4.839736   -0.283171
     95          1           0       -3.296421   -3.600087   -0.166391
     96          1           0       -1.758960   -4.456395    3.303339
     97          1           0       -3.012590   -5.689169    3.660047
     98          1           0       -1.521976   -6.059150    2.730230
     99          1           0        2.811050   -1.786513   -1.453607
    100          1           0        2.630207   -0.172280   -2.367800
    101          1           0        4.275588   -0.973141    0.326459
    102          1           0        4.061637    1.240035   -2.340865
    103          1           0        5.521669    2.399515   -1.950168
    104          1           0        5.725533    0.923800   -3.103245
    105          1           0        6.981821    1.300384    0.117907
    106          1           0        6.443710   -0.212040    0.773224
    107          1           0        7.308627   -1.141991   -1.460754
    108          1           0        7.754757    0.595380   -1.849457
    109          1           0        8.969614    0.769925    0.450774
    110          1           0        8.797280   -1.067735    0.524232
    111          1           0       10.152741    0.079436   -1.898464
    112          1           0        9.168722   -2.155841   -2.137790
    113          1           0       11.033908   -2.266859   -1.993452
    114          1           0       10.126857   -2.692668   -0.466111
    115          1           0       11.316492    0.565534    0.261619
    116          1           0       11.539746   -1.076788    0.817948
    117          1           0       13.124861   -1.438649   -1.269991
    118          1           0       12.792943    0.441064   -1.453521
    119          1           0       13.917912    0.808454    0.615306
    120          1           0       13.731115   -0.950392    1.030724
    121          1           0       15.020532    0.590427   -1.303034
    122          1           0       15.567478   -1.888269    0.149785
    123          1           0       14.797054   -2.040130   -1.615336
    124          1           0       16.641983   -1.760848   -1.304294
    125          1           0       15.830647    1.520753    0.727655
    126          1           0       16.457669   -0.263236    1.300361
    127          1           0       18.291309   -0.371216   -0.520928
    128          1           0       17.455011    1.442449   -0.964726
    129          1           0       18.466335    2.420845    0.998841
    130          1           0       18.535439    0.859459    1.698249
    131          1           0       20.659661    0.429895    0.216888
    132          1           0       20.271212    3.172749   -0.875192
    133          1           0       21.471581    2.049867   -1.341473
    134          1           0       19.907571    1.704506   -1.868599
    135          1           0       21.112292    1.189947    2.223088
    136          1           0       22.322297    2.051772    0.994120
    137          1           0       20.638295    2.700302    1.695300
 ---------------------------------------------------------------------

 SCF Done:  E(RCAM-B3LYP) =  -2932.51541279     A.U. after   17 cycles

 Excitation energies and oscillator strengths:

 Excited State   1:      Singlet-A      2.1152 eV  586.15 nm  f=0.2370  <S**2>=0.000
     240 -> 242       -0.26768
     240 -> 243        0.21867
     241 -> 242        0.58876
     241 -> 243        0.14671
 This state for optimization and/or second-order correction.
 Total Energy, E(TD-HF/TD-KS) =  -2932.43767992
 Copying the excited state density for this state as the 1-particle RhoCI density.

 The electronic state is 1-A.
 Alpha  occ. eigenvalues --  -46.85078 -19.26947 -19.25993 -19.21258 -19.19211
 Alpha  occ. eigenvalues --  -19.18475 -14.40712 -14.39654 -14.39572 -14.38559
 Alpha  occ. eigenvalues --  -10.38490 -10.37378 -10.34277 -10.34177 -10.31455
 Alpha  occ. eigenvalues --  -10.31221 -10.30205 -10.29715 -10.29576 -10.29571
 Alpha  occ. eigenvalues --  -10.29210 -10.29201 -10.29110 -10.29082 -10.28537
 Alpha  occ. eigenvalues --  -10.28142 -10.28142 -10.27952 -10.27855 -10.27805
 Alpha  occ. eigenvalues --  -10.27779 -10.27653 -10.27502 -10.27455 -10.27167
 Alpha  occ. eigenvalues --  -10.27083 -10.26975 -10.26941 -10.26881 -10.26871
 Alpha  occ. eigenvalues --  -10.26798 -10.26764 -10.26478 -10.26339 -10.26276
 Alpha  occ. eigenvalues --  -10.26150 -10.26006 -10.25966 -10.25892 -10.25837
 Alpha  occ. eigenvalues --  -10.25788 -10.25725 -10.25675 -10.25653 -10.25632
 Alpha  occ. eigenvalues --  -10.25582 -10.25358 -10.25294 -10.24646 -10.24599
 Alpha  occ. eigenvalues --  -10.24476 -10.24441 -10.24416 -10.24261 -10.24015
 Alpha  occ. eigenvalues --   -3.13873  -1.88610  -1.88076  -1.88056  -1.20106
 Alpha  occ. eigenvalues --   -1.19217  -1.11315  -1.07387  -1.07278  -1.05154
 Alpha  occ. eigenvalues --   -1.04361  -1.04291  -1.03345  -0.91926  -0.91801
 Alpha  occ. eigenvalues --   -0.91167  -0.90028  -0.89473  -0.89170  -0.88574
 Alpha  occ. eigenvalues --   -0.88390  -0.88004  -0.87122  -0.86812  -0.86405
 Alpha  occ. eigenvalues --   -0.85103  -0.84500  -0.83779  -0.83569  -0.81914
 Alpha  occ. eigenvalues --   -0.81369  -0.81182  -0.80380  -0.79687  -0.77939
 Alpha  occ. eigenvalues --   -0.77126  -0.76579  -0.76050  -0.75889  -0.75554
 Alpha  occ. eigenvalues --   -0.75407  -0.74959  -0.74873  -0.73399  -0.72766
 Alpha  occ. eigenvalues --   -0.71485  -0.70497  -0.69984  -0.68361  -0.68172
 Alpha  occ. eigenvalues --   -0.67275  -0.66089  -0.65515  -0.65136  -0.64585
 Alpha  occ. eigenvalues --   -0.63560  -0.63151  -0.62487  -0.62216  -0.62189
 Alpha  occ. eigenvalues --   -0.61590  -0.61289  -0.60127  -0.59090  -0.58729
 Alpha  occ. eigenvalues --   -0.58280  -0.57865  -0.57558  -0.57353  -0.56874
 Alpha  occ. eigenvalues --   -0.56410  -0.55788  -0.55725  -0.55074  -0.54874
 Alpha  occ. eigenvalues --   -0.54643  -0.54492  -0.53926  -0.53696  -0.53485
 Alpha  occ. eigenvalues --   -0.53181  -0.52706  -0.52433  -0.52110  -0.51826
 Alpha  occ. eigenvalues --   -0.51443  -0.51030  -0.50905  -0.50600  -0.50524
 Alpha  occ. eigenvalues --   -0.50137  -0.49862  -0.49520  -0.49389  -0.49105
 Alpha  occ. eigenvalues --   -0.48909  -0.48793  -0.48620  -0.48441  -0.48122
 Alpha  occ. eigenvalues --   -0.47844  -0.47698  -0.47212  -0.47153  -0.46635
 Alpha  occ. eigenvalues --   -0.46548  -0.46476  -0.46278  -0.46109  -0.46057
 Alpha  occ. eigenvalues --   -0.45694  -0.45511  -0.45460  -0.45167  -0.45095
 Alpha  occ. eigenvalues --   -0.44957  -0.44881  -0.44420  -0.44294  -0.44012
 Alpha  occ. eigenvalues --   -0.43795  -0.43642  -0.43320  -0.43232  -0.42780
 Alpha  occ. eigenvalues --   -0.42713  -0.42469  -0.42393  -0.42300  -0.42087
 Alpha  occ. eigenvalues --   -0.41750  -0.41733  -0.41619  -0.41520  -0.41418
 Alpha  occ. eigenvalues --   -0.41295  -0.41161  -0.40840  -0.40624  -0.40153
 Alpha  occ. eigenvalues --   -0.40111  -0.39747  -0.39211  -0.39087  -0.39056
 Alpha  occ. eigenvalues --   -0.38776  -0.38590  -0.38130  -0.38064  -0.37987
 Alpha  occ. eigenvalues --   -0.37468  -0.37293  -0.36468  -0.36431  -0.36258
 Alpha  occ. eigenvalues --   -0.36139  -0.36051  -0.35813  -0.35504  -0.35157
 Alpha  occ. eigenvalues --   -0.34937  -0.34517  -0.34324  -0.33922  -0.33416
 Alpha  occ. eigenvalues --   -0.32823  -0.32131  -0.31689  -0.30729  -0.30623
 Alpha  occ. eigenvalues --   -0.28767  -0.28203  -0.27643  -0.27107  -0.22925
 Alpha  occ. eigenvalues --   -0.21696
 Alpha virt. eigenvalues --   -0.06652  -0.03368   0.01635   0.03069   0.05909
 Alpha virt. eigenvalues --    0.06351   0.06749   0.06916   0.08274   0.08411
 Alpha virt. eigenvalues --    0.09107   0.10440   0.10905   0.11121   0.11322

 Mulliken charges:
               1
     1  Mg   0.822552
     2  C    0.106095
     3  C   -0.199749
     4  C   -0.180064
     5  C   -0.145208
     6  N   -0.667503
     7  C    0.299208
     8  C   -0.134208
     9  C   -0.172452
    10  C    0.391243
    11  C   -0.291187
    12  C   -0.173348
    13  C   -0.275697
    14  C    0.599199
    15  O   -0.422823
    16  O   -0.492173
    17  N   -0.723561
    18  C    0.350466
    19  C   -0.039503
    20  C    0.074504
    21  C    0.314485
    22  C   -0.334448
    23  C   -0.121147
    24  C   -0.238642
    25  N   -0.685835
    26  C    0.335023
    27  C    0.004658
    28  C    0.015624
    29  C    0.261274
    30  C   -0.360666
    31  C   -0.246424
    32  C   -0.320580
    33  N   -0.720195
    34  C    0.256962
    35  C    0.040948
    36  C   -0.000196
    37  C    0.307761
    38  C   -0.383036
    39  C    0.321539
    40  O   -0.496396
    41  C   -0.383276
    42  C    0.639091
    43  O   -0.528309
    44  O   -0.429639
    45  C   -0.080775
    46  C   -0.002993
    47  C   -0.116111
    48  C    0.122530
    49  C   -0.338089
    50  C   -0.231358
    51  C   -0.169754
    52  C   -0.151775
    53  C   -0.082799
    54  C   -0.301590
    55  C   -0.116418
    56  C   -0.206771
    57  C   -0.148267
    58  C   -0.072839
    59  C   -0.295672
    60  C   -0.169668
    61  C   -0.166032
    62  C   -0.161369
    63  C   -0.034911
    64  C   -0.322916
    65  C   -0.289143
    66  H    0.075774
    67  H    0.102178
    68  H    0.114697
    69  H    0.143253
    70  H    0.098503
    71  H    0.115900
    72  H    0.092278
    73  H    0.105242
    74  H    0.119718
    75  H    0.107393
    76  H    0.117156
    77  H    0.140318
    78  H    0.106988
    79  H    0.068915
    80  H    0.128727
    81  H    0.095547
    82  H    0.107618
    83  H    0.117534
    84  H    0.117561
    85  H    0.117658
    86  H    0.100059
    87  H    0.092699
    88  H    0.119417
    89  H    0.097565
    90  H    0.093881
    91  H    0.126025
    92  H    0.121008
    93  H    0.154009
    94  H    0.124628
    95  H    0.160197
    96  H    0.148504
    97  H    0.155276
    98  H    0.128352
    99  H    0.099305
   100  H    0.119563
   101  H    0.099846
   102  H    0.117088
   103  H    0.097493
   104  H    0.110294
   105  H    0.106708
   106  H    0.080438
   107  H    0.077502
   108  H    0.104085
   109  H    0.057791
   110  H    0.101702
   111  H    0.078795
   112  H    0.106766
   113  H    0.107862
   114  H    0.098912
   115  H    0.095692
   116  H    0.091246
   117  H    0.059359
   118  H    0.047060
   119  H    0.090395
   120  H    0.057529
   121  H    0.077901
   122  H    0.102798
   123  H    0.099098
   124  H    0.107126
   125  H    0.092473
   126  H    0.084281
   127  H    0.100125
   128  H    0.076886
   129  H    0.058308
   130  H    0.099988
   131  H    0.094594
   132  H    0.077227
   133  H    0.101109
   134  H    0.107104
   135  H    0.093140
   136  H    0.059505
   137  H    0.110685
 Sum of Mulliken charges =   0.00000

 Dipole moment (field-independent basis, Debye):
    X=              1.2940    Y=              3.5931    Z=              0.7202  Tot=              3.8863
 Quadrupole moment (field-independent basis, Debye-Ang):
   XX=           -341.1839   YY=           -395.7915   ZZ=           -398.6204
   XY=            -24.5367   XZ=             13.0305   YZ=             -8.8906

 Normal termination of Gaussian 09 at Fri Jun 28 13:52:55 2019.
