 Gaussian 09, Revision D.01,
 Gaussian 09:  ES64L-G09RevD.01 24-Apr-2013

 -------------------------------------
 # td=(NStates=1) CAM-B3LYP/6-31G(d,p)
 -------------------------------------

 --
 TD
 --
 Symbolic Z-matrix:
 Charge =  0 Multiplicity = 1

                         Standard orientation:
 ---------------------------------------------------------------------
 Center     Atomic      Atomic             Coordinates (Angstroms)
 Number     Number       Type             X           Y           Z
 ---------------------------------------------------------------------
      1         12           0       -7.109628    0.573157    0.111766
      2          6           0       -4.817476   -1.951076    0.528702
      3          6           0       -4.734741    2.887591    1.158859
      4          6           0       -9.424360    3.070985   -0.397917
      5          6           0       -9.502556   -1.758789   -0.790642
      6          7           0       -5.048876    0.456409    0.740387
      7          6           0       -4.322696   -0.683243    0.741929
      8          6           0       -2.812448   -0.477910    1.166263
      9          6           0       -2.989688    1.086068    1.689538
     10          6           0       -4.344889    1.519520    1.158039
     11          6           0       -2.999823    1.288218    3.191232
     12          6           0       -1.867225   -0.562360    0.097989
     13          6           0       -0.488627   -0.420121    0.511616
     14          6           0        0.572259   -0.763157   -0.575834
     15          8           0        0.271535   -1.090042   -1.703088
     16          8           0        1.845367   -0.510396   -0.202969
     17          7           0       -7.116486    2.579497    0.301579
     18          6           0       -6.094145    3.318136    0.785833
     19          6           0       -6.471082    4.694920    0.841793
     20          6           0       -7.690354    4.788695    0.425203
     21          6           0       -8.191738    3.468715    0.131730
     22          6           0       -5.517820    5.917326    1.275217
     23          6           0       -8.538139    5.996411    0.431380
     24          6           0       -8.190803    7.272211    0.118883
     25          7           0       -9.041840    0.671719   -0.437581
     26          6           0       -9.846811    1.763013   -0.657546
     27          6           0      -11.267033    1.491393   -1.019041
     28          6           0      -11.273308    0.022723   -1.168951
     29          6           0       -9.912015   -0.374674   -0.856493
     30          6           0      -12.283399    2.343402   -1.398925
     31          6           0      -12.407869   -0.909965   -1.594555
     32          6           0      -12.281683   -1.158013   -3.082746
     33          7           0       -7.201560   -1.380929   -0.145180
     34          6           0       -8.237528   -2.174323   -0.495305
     35          6           0       -7.819530   -3.533867   -0.502073
     36          6           0       -6.453669   -3.491139   -0.266319
     37          6           0       -6.161343   -2.186913    0.134793
     38          6           0       -8.699077   -4.709612   -0.788815
     39          6           0       -5.317749   -4.283295    0.119766
     40          8           0       -5.091753   -5.505675    0.105755
     41          6           0       -4.069030   -3.282162    0.567338
     42          6           0       -3.527423   -3.732521    1.883401
     43          8           0       -3.937508   -3.197019    2.961918
     44          8           0       -2.702906   -4.724295    1.735167
     45          6           0       -2.168734   -5.208637    3.072460
     46          6           0        2.790031   -0.780762   -1.222928
     47          6           0        4.169456   -0.361500   -0.699570
     48          6           0        5.142366    0.486275   -1.038885
     49          6           0        5.105313    1.301675   -2.255099
     50          6           0        6.340779    0.497447   -0.281886
     51          6           0        7.599280   -0.015903   -1.168568
     52          6           0        8.825353   -0.129043   -0.303518
     53          6           0       10.218199   -0.565363   -0.989289
     54          6           0       10.088029   -2.114413   -1.396426
     55          6           0       11.380794   -0.221220   -0.112134
     56          6           0       12.836322   -0.310823   -0.829468
     57          6           0       13.827128   -0.006110    0.127674
     58          6           0       15.340902   -0.237178   -0.496333
     59          6           0       15.628545   -1.660504   -0.923809
     60          6           0       16.312237    0.298324    0.490855
     61          6           0       17.682561    0.587970   -0.181658
     62          6           0       18.734839    1.199330    0.948584
     63          6           0       20.190144    1.192760    0.418542
     64          6           0       20.436258    2.083208   -0.887752
     65          6           0       21.116387    1.867935    1.531185
     66          1           0       -3.954795    3.647688    1.563816
     67          1           0      -10.251895    3.824495   -0.554181
     68          1           0      -10.101640   -2.566631   -1.053473
     69          1           0       -2.653171   -1.064800    2.056239
     70          1           0       -2.344823    1.841122    1.131995
     71          1           0       -2.147801    0.933259    3.572149
     72          1           0       -3.237606    2.252074    3.488971
     73          1           0       -3.820303    0.728916    3.644142
     74          1           0       -1.942927   -1.602873   -0.385832
     75          1           0       -1.911481    0.231141   -0.619360
     76          1           0       -0.078302    0.576049    0.787992
     77          1           0       -0.339909   -1.043944    1.452741
     78          1           0       -4.742424    6.330600    0.552400
     79          1           0       -6.097601    6.752573    1.600091
     80          1           0       -4.805869    5.778141    2.162748
     81          1           0       -9.686204    5.949238    0.425932
     82          1           0       -9.023514    8.008299    0.185666
     83          1           0       -7.160355    7.341937   -0.191102
     84          1           0      -12.315908    3.009131   -2.396635
     85          1           0      -13.169263    1.766150   -1.487909
     86          1           0      -12.396166    2.960660   -0.552808
     87          1           0      -12.414404   -1.632903   -1.197899
     88          1           0      -13.320808   -0.285956   -1.362968
     89          1           0      -13.065183   -1.679764   -3.553045
     90          1           0      -12.074271   -0.301621   -3.815135
     91          1           0      -11.398241   -1.666552   -3.398438
     92          1           0       -9.086280   -4.702950   -1.831610
     93          1           0       -7.917651   -5.439096   -0.756363
     94          1           0       -9.330438   -5.071153    0.056769
     95          1           0       -3.397212   -3.516637   -0.420683
     96          1           0       -1.519734   -4.347532    3.514084
     97          1           0       -2.982547   -5.474710    3.732136
     98          1           0       -1.597487   -6.082839    2.897565
     99          1           0        2.915001   -1.808603   -1.778307
    100          1           0        2.600040   -0.082995   -2.042789
    101          1           0        4.533195   -1.027525    0.171341
    102          1           0        4.158312    1.484311   -2.922547
    103          1           0        5.405758    2.229284   -1.873301
    104          1           0        5.690862    1.256983   -3.196167
    105          1           0        6.574248    1.525766   -0.165880
    106          1           0        6.290405    0.101810    0.787594
    107          1           0        7.233182   -1.025348   -1.609954
    108          1           0        7.582456    0.732890   -1.986363
    109          1           0        8.706579    0.943793    0.234599
    110          1           0        8.743080   -0.775220    0.698314
    111          1           0       10.165169    0.095326   -1.946838
    112          1           0        9.146000   -2.186826   -2.009025
    113          1           0       10.908854   -2.532802   -2.036727
    114          1           0        9.987084   -2.603138   -0.396373
    115          1           0       11.343701    0.699105    0.186393
    116          1           0       11.460540   -0.835063    0.632645
    117          1           0       12.874602   -1.445735   -1.365279
    118          1           0       12.679868    0.400186   -1.816766
    119          1           0       13.627751    1.156004    0.261524
    120          1           0       13.673635   -0.590341    1.036132
    121          1           0       15.167981    0.532969   -1.407028
    122          1           0       15.487597   -2.373972    0.013801
    123          1           0       14.886934   -2.050181   -1.482428
    124          1           0       16.626160   -2.023273   -1.185638
    125          1           0       15.998708    1.237836    0.936537
    126          1           0       16.423127   -0.279487    1.305313
    127          1           0       18.280511   -0.332123   -0.622244
    128          1           0       17.684753    0.938589   -1.151134
    129          1           0       18.377865    2.166028    1.251503
    130          1           0       18.570894    0.642023    1.711147
    131          1           0       20.535158    0.126036    0.104731
    132          1           0       20.176948    3.116394   -0.712412
    133          1           0       21.531454    2.143726   -1.180513
    134          1           0       19.835579    1.999974   -1.713572
    135          1           0       20.926016    1.198665    2.453138
    136          1           0       22.153448    1.681147    1.050920
    137          1           0       20.747506    2.888983    1.789878
 ---------------------------------------------------------------------

 SCF Done:  E(RCAM-B3LYP) =  -2932.58170944     A.U. after   17 cycles

 Excitation energies and oscillator strengths:

 Excited State   1:      Singlet-A      2.0948 eV  591.87 nm  f=0.2131  <S**2>=0.000
     240 -> 243       -0.27031
     241 -> 242        0.64617
 This state for optimization and/or second-order correction.
 Total Energy, E(TD-HF/TD-KS) =  -2932.50472691
 Copying the excited state density for this state as the 1-particle RhoCI density.

 The electronic state is 1-A.
 Alpha  occ. eigenvalues --  -46.83318 -19.27831 -19.27091 -19.20833 -19.19843
 Alpha  occ. eigenvalues --  -19.19464 -14.41186 -14.39628 -14.39618 -14.38710
 Alpha  occ. eigenvalues --  -10.39233 -10.39017 -10.35198 -10.32495 -10.32478
 Alpha  occ. eigenvalues --  -10.30628 -10.30406 -10.30336 -10.29384 -10.29170
 Alpha  occ. eigenvalues --  -10.29001 -10.28958 -10.28656 -10.28084 -10.27680
 Alpha  occ. eigenvalues --  -10.27607 -10.27462 -10.27410 -10.27391 -10.27357
 Alpha  occ. eigenvalues --  -10.27344 -10.27315 -10.27261 -10.27150 -10.27128
 Alpha  occ. eigenvalues --  -10.27080 -10.27035 -10.26903 -10.26884 -10.26834
 Alpha  occ. eigenvalues --  -10.26783 -10.26640 -10.26557 -10.26404 -10.26282
 Alpha  occ. eigenvalues --  -10.26187 -10.25939 -10.25931 -10.25916 -10.25903
 Alpha  occ. eigenvalues --  -10.25782 -10.25677 -10.25658 -10.25624 -10.25514
 Alpha  occ. eigenvalues --  -10.25261 -10.24969 -10.24930 -10.24729 -10.24377
 Alpha  occ. eigenvalues --  -10.23992 -10.23689 -10.23687 -10.23666 -10.22493
 Alpha  occ. eigenvalues --   -3.12583  -1.87274  -1.86824  -1.86781  -1.19041
 Alpha  occ. eigenvalues --   -1.18312  -1.09498  -1.09080  -1.06126  -1.05076
 Alpha  occ. eigenvalues --   -1.04118  -1.03362  -1.01119  -0.92285  -0.92042
 Alpha  occ. eigenvalues --   -0.91319  -0.90530  -0.89701  -0.89173  -0.88564
 Alpha  occ. eigenvalues --   -0.88338  -0.87841  -0.87099  -0.86953  -0.85742
 Alpha  occ. eigenvalues --   -0.85286  -0.84843  -0.83739  -0.82796  -0.82561
 Alpha  occ. eigenvalues --   -0.81600  -0.81141  -0.80491  -0.79837  -0.78580
 Alpha  occ. eigenvalues --   -0.77784  -0.77353  -0.76697  -0.76047  -0.76008
 Alpha  occ. eigenvalues --   -0.75536  -0.75155  -0.74518  -0.73260  -0.72679
 Alpha  occ. eigenvalues --   -0.72101  -0.71208  -0.69756  -0.69096  -0.68068
 Alpha  occ. eigenvalues --   -0.66956  -0.66482  -0.65335  -0.64665  -0.64488
 Alpha  occ. eigenvalues --   -0.64185  -0.63210  -0.62970  -0.62853  -0.61788
 Alpha  occ. eigenvalues --   -0.61776  -0.61397  -0.60094  -0.59291  -0.58854
 Alpha  occ. eigenvalues --   -0.58642  -0.58321  -0.57280  -0.57082  -0.56397
 Alpha  occ. eigenvalues --   -0.56215  -0.55644  -0.55238  -0.55154  -0.55013
 Alpha  occ. eigenvalues --   -0.54353  -0.54161  -0.53913  -0.53346  -0.52888
 Alpha  occ. eigenvalues --   -0.52756  -0.52618  -0.52493  -0.52234  -0.51647
 Alpha  occ. eigenvalues --   -0.51598  -0.51184  -0.50870  -0.50663  -0.50444
 Alpha  occ. eigenvalues --   -0.50251  -0.49943  -0.49880  -0.49817  -0.49463
 Alpha  occ. eigenvalues --   -0.49307  -0.48988  -0.48851  -0.48745  -0.48455
 Alpha  occ. eigenvalues --   -0.47807  -0.47637  -0.47312  -0.47155  -0.47010
 Alpha  occ. eigenvalues --   -0.46816  -0.46561  -0.46261  -0.46130  -0.46096
 Alpha  occ. eigenvalues --   -0.45876  -0.45610  -0.45446  -0.45050  -0.44735
 Alpha  occ. eigenvalues --   -0.44700  -0.44613  -0.44402  -0.44301  -0.44047
 Alpha  occ. eigenvalues --   -0.43969  -0.43835  -0.43471  -0.43375  -0.43056
 Alpha  occ. eigenvalues --   -0.42816  -0.42554  -0.42410  -0.42348  -0.42102
 Alpha  occ. eigenvalues --   -0.42048  -0.41970  -0.41906  -0.41738  -0.41590
 Alpha  occ. eigenvalues --   -0.41311  -0.41248  -0.41005  -0.40793  -0.40615
 Alpha  occ. eigenvalues --   -0.40480  -0.40215  -0.39543  -0.39477  -0.39177
 Alpha  occ. eigenvalues --   -0.38887  -0.38621  -0.38520  -0.38180  -0.37872
 Alpha  occ. eigenvalues --   -0.37393  -0.37000  -0.36761  -0.36404  -0.36276
 Alpha  occ. eigenvalues --   -0.35990  -0.35918  -0.35828  -0.35635  -0.35484
 Alpha  occ. eigenvalues --   -0.35396  -0.34966  -0.34172  -0.33688  -0.33002
 Alpha  occ. eigenvalues --   -0.32423  -0.32061  -0.31236  -0.30705  -0.29967
 Alpha  occ. eigenvalues --   -0.29035  -0.28700  -0.28374  -0.27217  -0.22809
 Alpha  occ. eigenvalues --   -0.21292
 Alpha virt. eigenvalues --   -0.06162  -0.03085   0.01868   0.04697   0.05472
 Alpha virt. eigenvalues --    0.06278   0.06606   0.06759   0.06951   0.07047
 Alpha virt. eigenvalues --    0.09291   0.11260   0.11369   0.11475   0.11957

 Mulliken charges:
               1
     1  Mg   0.816332
     2  C    0.091082
     3  C   -0.209209
     4  C   -0.191896
     5  C   -0.155163
     6  N   -0.628314
     7  C    0.273969
     8  C   -0.154317
     9  C   -0.176018
    10  C    0.339695
    11  C   -0.306331
    12  C   -0.134278
    13  C   -0.271254
    14  C    0.602261
    15  O   -0.467041
    16  O   -0.459655
    17  N   -0.709274
    18  C    0.321027
    19  C    0.024497
    20  C    0.037771
    21  C    0.274683
    22  C   -0.383435
    23  C   -0.094650
    24  C   -0.243170
    25  N   -0.666905
    26  C    0.310113
    27  C    0.022946
    28  C   -0.018808
    29  C    0.255461
    30  C   -0.381771
    31  C   -0.118773
    32  C   -0.341366
    33  N   -0.752315
    34  C    0.322039
    35  C   -0.000008
    36  C    0.002625
    37  C    0.295423
    38  C   -0.398551
    39  C    0.348583
    40  O   -0.483299
    41  C   -0.327363
    42  C    0.661584
    43  O   -0.534457
    44  O   -0.434343
    45  C   -0.095009
    46  C    0.020955
    47  C   -0.159790
    48  C    0.172872
    49  C   -0.393127
    50  C   -0.263185
    51  C   -0.172750
    52  C   -0.160622
    53  C   -0.079252
    54  C   -0.307184
    55  C   -0.142748
    56  C   -0.177163
    57  C   -0.171725
    58  C   -0.051262
    59  C   -0.312769
    60  C   -0.157328
    61  C   -0.201476
    62  C   -0.159664
    63  C   -0.069738
    64  C   -0.317616
    65  C   -0.297366
    66  H    0.094207
    67  H    0.091615
    68  H    0.089004
    69  H    0.130326
    70  H    0.094173
    71  H    0.114852
    72  H    0.116382
    73  H    0.124049
    74  H    0.120652
    75  H    0.121155
    76  H    0.133630
    77  H    0.116380
    78  H    0.116972
    79  H    0.129757
    80  H    0.102626
    81  H    0.085730
    82  H    0.110518
    83  H    0.111319
    84  H    0.112536
    85  H    0.117133
    86  H    0.124901
    87  H    0.080208
    88  H    0.098190
    89  H    0.107757
    90  H    0.101603
    91  H    0.115362
    92  H    0.130213
    93  H    0.153736
    94  H    0.135262
    95  H    0.150157
    96  H    0.129392
    97  H    0.158703
    98  H    0.137802
    99  H    0.128706
   100  H    0.116565
   101  H    0.067131
   102  H    0.104358
   103  H    0.117660
   104  H    0.126864
   105  H    0.102814
   106  H    0.104836
   107  H    0.090198
   108  H    0.107048
   109  H    0.065935
   110  H    0.072657
   111  H    0.068470
   112  H    0.104410
   113  H    0.106860
   114  H    0.101769
   115  H    0.101330
   116  H    0.095814
   117  H    0.056143
   118  H    0.068818
   119  H    0.086432
   120  H    0.097311
   121  H    0.068241
   122  H    0.070059
   123  H    0.117330
   124  H    0.118624
   125  H    0.090349
   126  H    0.100779
   127  H    0.056454
   128  H    0.102273
   129  H    0.090016
   130  H    0.104455
   131  H    0.082302
   132  H    0.096258
   133  H    0.090157
   134  H    0.105257
   135  H    0.087102
   136  H    0.098672
   137  H    0.111056
 Sum of Mulliken charges =   0.00000

 Dipole moment (field-independent basis, Debye):
    X=              0.6536    Y=              3.5180    Z=              0.5208  Tot=              3.6159
 Quadrupole moment (field-independent basis, Debye-Ang):
   XX=           -350.3673   YY=           -389.1302   ZZ=           -393.7928
   XY=            -16.2750   XZ=             15.1359   YZ=             -5.6886

 Normal termination of Gaussian 09 at Sat Jun 29 19:08:05 2019.
