 Gaussian 09, Revision D.01,
 Gaussian 09:  ES64L-G09RevD.01 24-Apr-2013

 -------------------------------------
 # td=(NStates=1) CAM-B3LYP/6-31G(d,p)
 -------------------------------------

 --
 TD
 --
 Symbolic Z-matrix:
 Charge =  0 Multiplicity = 1

                         Standard orientation:
 ---------------------------------------------------------------------
 Center     Atomic      Atomic             Coordinates (Angstroms)
 Number     Number       Type             X           Y           Z
 ---------------------------------------------------------------------
      1         12           0       -7.130845    0.595725    0.078675
      2          6           0       -4.875516   -2.009256    0.421863
      3          6           0       -4.829888    2.812004    1.126963
      4          6           0       -9.343713    3.128040   -0.379137
      5          6           0       -9.568628   -1.798148   -0.921612
      6          7           0       -5.049096    0.376612    0.637536
      7          6           0       -4.290583   -0.727290    0.684293
      8          6           0       -2.874414   -0.476600    1.239994
      9          6           0       -2.933461    1.043283    1.706223
     10          6           0       -4.397250    1.460694    1.093850
     11          6           0       -2.983296    1.212810    3.237195
     12          6           0       -1.917874   -0.703976    0.170830
     13          6           0       -0.463148   -0.302849    0.613540
     14          6           0        0.590913   -0.553100   -0.551660
     15          8           0        0.322696   -0.868542   -1.720829
     16          8           0        1.776296   -0.218469   -0.187664
     17          7           0       -7.072174    2.573142    0.232907
     18          6           0       -6.071923    3.373691    0.775776
     19          6           0       -6.391336    4.722799    0.885398
     20          6           0       -7.678671    4.789073    0.476517
     21          6           0       -8.125866    3.544338    0.089282
     22          6           0       -5.407335    5.858573    1.391602
     23          6           0       -8.638491    5.895476    0.332540
     24          6           0       -8.311278    7.205849    0.209400
     25          7           0       -9.163365    0.685213   -0.444056
     26          6           0       -9.958631    1.762672   -0.516262
     27          6           0      -11.245480    1.441338   -0.984033
     28          6           0      -11.252152    0.141599   -1.123979
     29          6           0       -9.926556   -0.366879   -0.850346
     30          6           0      -12.270505    2.432400   -1.215657
     31          6           0      -12.446493   -0.609281   -1.620812
     32          6           0      -12.398242   -0.879272   -3.161963
     33          7           0       -7.171270   -1.387856   -0.224998
     34          6           0       -8.317925   -2.225027   -0.554263
     35          6           0       -7.845201   -3.616742   -0.540642
     36          6           0       -6.512635   -3.584936   -0.217091
     37          6           0       -6.170898   -2.191860    0.008020
     38          6           0       -8.672596   -4.812044   -0.906205
     39          6           0       -5.394027   -4.455025    0.116140
     40          8           0       -5.235763   -5.681938    0.053117
     41          6           0       -4.151699   -3.397368    0.407239
     42          6           0       -3.694523   -3.768555    1.842739
     43          8           0       -3.977321   -3.164392    2.801956
     44          8           0       -2.883351   -4.802092    1.780868
     45          6           0       -2.370235   -5.216932    3.088425
     46          6           0        2.855316   -0.485323   -1.323698
     47          6           0        4.119717   -0.427509   -0.506954
     48          6           0        5.097099    0.467240   -0.913744
     49          6           0        4.986563    1.412177   -2.169832
     50          6           0        6.462255    0.445159   -0.208204
     51          6           0        7.633398   -0.105142   -1.084491
     52          6           0        8.889385   -0.222613   -0.210578
     53          6           0       10.248367   -0.508320   -0.800922
     54          6           0       10.131700   -1.832991   -1.427741
     55          6           0       11.467357   -0.278150   -0.024360
     56          6           0       12.769551   -0.455552   -0.672894
     57          6           0       14.086415   -0.119434    0.144603
     58          6           0       15.384916   -0.176431   -0.464694
     59          6           0       15.753942   -1.622412   -0.936363
     60          6           0       16.437895    0.506536    0.404521
     61          6           0       17.809322    0.447763   -0.156315
     62          6           0       18.861474    1.132910    0.809308
     63          6           0       20.283601    1.226112    0.256641
     64          6           0       20.430701    2.146063   -0.992973
     65          6           0       21.235406    1.751298    1.441056
     66          1           0       -4.181378    3.485729    1.722779
     67          1           0      -10.078759    3.909905   -0.559620
     68          1           0      -10.378900   -2.389845   -1.178232
     69          1           0       -2.652339   -1.067991    2.066581
     70          1           0       -2.055128    1.660024    1.231974
     71          1           0       -2.205566    0.600226    3.730251
     72          1           0       -3.158000    2.088589    3.541632
     73          1           0       -3.886860    0.538512    3.712615
     74          1           0       -1.940717   -1.803015   -0.333369
     75          1           0       -2.162584    0.054520   -0.725614
     76          1           0       -0.466991    0.868761    0.861733
     77          1           0       -0.268888   -1.026626    1.536028
     78          1           0       -5.115453    6.390655    0.339530
     79          1           0       -5.952521    6.568285    2.016994
     80          1           0       -4.661534    5.376927    2.009336
     81          1           0       -9.710444    5.429464    0.432098
     82          1           0       -9.017841    7.837420    0.242935
     83          1           0       -7.230249    7.685133    0.098826
     84          1           0      -11.856501    2.978206   -2.097290
     85          1           0      -13.187628    2.024641   -1.615238
     86          1           0      -12.280093    3.147608   -0.322279
     87          1           0      -12.426878   -1.704128   -1.224377
     88          1           0      -13.307177   -0.077690   -1.315359
     89          1           0      -13.526226   -1.528776   -3.539144
     90          1           0      -12.539659   -0.086209   -3.717618
     91          1           0      -11.407194   -1.465361   -3.314856
     92          1           0       -8.758540   -4.939652   -2.058890
     93          1           0       -8.090966   -5.726615   -0.666932
     94          1           0       -9.593926   -4.762586   -0.477765
     95          1           0       -3.457679   -3.549997   -0.552708
     96          1           0       -1.698656   -4.414405    3.408971
     97          1           0       -3.212541   -5.390069    3.692691
     98          1           0       -1.706077   -6.189949    2.836249
     99          1           0        2.607806   -1.463428   -1.747861
    100          1           0        2.657816    0.089476   -2.342557
    101          1           0        4.214601   -1.147061    0.290643
    102          1           0        4.051936    1.718076   -2.413238
    103          1           0        5.660338    2.305508   -2.023082
    104          1           0        5.381868    0.698911   -3.029325
    105          1           0        6.854066    1.489377    0.013808
    106          1           0        6.268490   -0.056264    0.845382
    107          1           0        7.376745   -1.110066   -1.326240
    108          1           0        7.803778    0.593075   -2.059884
    109          1           0        8.988868    0.726916    0.230271
    110          1           0        8.617291   -0.915266    0.686516
    111          1           0       10.504174    0.115564   -1.723373
    112          1           0        9.084340   -2.111335   -1.743239
    113          1           0       10.959324   -2.167728   -2.204685
    114          1           0       10.365602   -2.544820   -0.526588
    115          1           0       11.503570    0.775933    0.259076
    116          1           0       11.563642   -0.941671    0.832360
    117          1           0       13.143980   -1.487106   -0.900774
    118          1           0       12.860698    0.175823   -1.599318
    119          1           0       14.051432    0.851686    0.449036
    120          1           0       14.088041   -0.755890    1.210106
    121          1           0       15.649655    0.426822   -1.393548
    122          1           0       15.999315   -2.178941    0.038115
    123          1           0       15.052870   -2.141263   -1.596906
    124          1           0       16.630130   -1.626468   -1.498534
    125          1           0       16.052700    1.518694    0.703457
    126          1           0       16.512373   -0.236072    1.444385
    127          1           0       17.951365   -0.594016   -0.366039
    128          1           0       17.956405    0.911292   -1.350123
    129          1           0       18.689941    2.258410    0.826338
    130          1           0       18.756556    0.503584    1.798012
    131          1           0       20.679060    0.128534   -0.146014
    132          1           0       19.971332    2.995220   -0.709045
    133          1           0       21.396304    1.974572   -1.392345
    134          1           0       19.780970    1.625349   -1.840129
    135          1           0       21.314269    1.095927    2.409478
    136          1           0       22.145096    1.687266    1.007026
    137          1           0       20.939215    2.709394    1.714303
 ---------------------------------------------------------------------

 SCF Done:  E(RCAM-B3LYP) =  -2932.63456266     A.U. after   16 cycles

 Excitation energies and oscillator strengths:

 Excited State   1:      Singlet-A      2.1095 eV  587.75 nm  f=0.1550  <S**2>=0.000
     240 -> 243        0.31995
     241 -> 242        0.62267
 This state for optimization and/or second-order correction.
 Total Energy, E(TD-HF/TD-KS) =  -2932.55704149
 Copying the excited state density for this state as the 1-particle RhoCI density.

 The electronic state is 1-A.
 Alpha  occ. eigenvalues --  -46.83919 -19.26239 -19.25793 -19.20714 -19.20695
 Alpha  occ. eigenvalues --  -19.19179 -14.41599 -14.39482 -14.38798 -14.38641
 Alpha  occ. eigenvalues --  -10.38482 -10.38359 -10.35486 -10.33372 -10.32070
 Alpha  occ. eigenvalues --  -10.31262 -10.31255 -10.29593 -10.29470 -10.29235
 Alpha  occ. eigenvalues --  -10.29104 -10.29069 -10.29045 -10.28747 -10.28732
 Alpha  occ. eigenvalues --  -10.28182 -10.28060 -10.28059 -10.28019 -10.28002
 Alpha  occ. eigenvalues --  -10.27937 -10.27752 -10.27611 -10.27560 -10.27387
 Alpha  occ. eigenvalues --  -10.27384 -10.27332 -10.27058 -10.26844 -10.26766
 Alpha  occ. eigenvalues --  -10.26689 -10.26644 -10.26489 -10.26455 -10.26266
 Alpha  occ. eigenvalues --  -10.26167 -10.26069 -10.26007 -10.25958 -10.25896
 Alpha  occ. eigenvalues --  -10.25847 -10.25691 -10.25663 -10.25565 -10.25510
 Alpha  occ. eigenvalues --  -10.25437 -10.25395 -10.25342 -10.25126 -10.24702
 Alpha  occ. eigenvalues --  -10.24693 -10.24447 -10.24004 -10.23993 -10.23853
 Alpha  occ. eigenvalues --   -3.12978  -1.87681  -1.87211  -1.87168  -1.19579
 Alpha  occ. eigenvalues --   -1.17762  -1.10717  -1.09697  -1.06231  -1.04438
 Alpha  occ. eigenvalues --   -1.03720  -1.03016  -1.02227  -0.92408  -0.91115
 Alpha  occ. eigenvalues --   -0.91020  -0.90070  -0.89808  -0.89184  -0.88875
 Alpha  occ. eigenvalues --   -0.88304  -0.88192  -0.87384  -0.86371  -0.86130
 Alpha  occ. eigenvalues --   -0.84528  -0.83760  -0.83199  -0.82733  -0.82016
 Alpha  occ. eigenvalues --   -0.81430  -0.80865  -0.80208  -0.79821  -0.78206
 Alpha  occ. eigenvalues --   -0.77756  -0.76996  -0.76593  -0.76277  -0.75814
 Alpha  occ. eigenvalues --   -0.75404  -0.74909  -0.74694  -0.72627  -0.72084
 Alpha  occ. eigenvalues --   -0.71443  -0.70238  -0.69630  -0.68863  -0.68112
 Alpha  occ. eigenvalues --   -0.66734  -0.66689  -0.65006  -0.64512  -0.64017
 Alpha  occ. eigenvalues --   -0.63441  -0.62368  -0.62202  -0.61814  -0.61555
 Alpha  occ. eigenvalues --   -0.60493  -0.60297  -0.60210  -0.59206  -0.58889
 Alpha  occ. eigenvalues --   -0.58400  -0.57580  -0.57378  -0.56828  -0.56300
 Alpha  occ. eigenvalues --   -0.56129  -0.55698  -0.55211  -0.55086  -0.54771
 Alpha  occ. eigenvalues --   -0.54531  -0.54227  -0.53829  -0.53697  -0.53255
 Alpha  occ. eigenvalues --   -0.52841  -0.52556  -0.52393  -0.51929  -0.51851
 Alpha  occ. eigenvalues --   -0.51513  -0.51421  -0.51257  -0.50901  -0.50617
 Alpha  occ. eigenvalues --   -0.50420  -0.50055  -0.49970  -0.49749  -0.49398
 Alpha  occ. eigenvalues --   -0.49293  -0.48972  -0.48739  -0.48672  -0.48609
 Alpha  occ. eigenvalues --   -0.48204  -0.48047  -0.47949  -0.47769  -0.47639
 Alpha  occ. eigenvalues --   -0.47225  -0.46928  -0.46744  -0.46215  -0.45600
 Alpha  occ. eigenvalues --   -0.45545  -0.45191  -0.45019  -0.44779  -0.44620
 Alpha  occ. eigenvalues --   -0.44564  -0.44348  -0.44151  -0.44050  -0.43912
 Alpha  occ. eigenvalues --   -0.43557  -0.43452  -0.43306  -0.43134  -0.43072
 Alpha  occ. eigenvalues --   -0.42905  -0.42807  -0.42589  -0.42111  -0.42071
 Alpha  occ. eigenvalues --   -0.41996  -0.41831  -0.41761  -0.41698  -0.41537
 Alpha  occ. eigenvalues --   -0.41175  -0.41042  -0.40886  -0.40582  -0.40204
 Alpha  occ. eigenvalues --   -0.40123  -0.39884  -0.39403  -0.39174  -0.39078
 Alpha  occ. eigenvalues --   -0.38822  -0.38299  -0.37883  -0.37741  -0.37207
 Alpha  occ. eigenvalues --   -0.37148  -0.37115  -0.37098  -0.36855  -0.36608
 Alpha  occ. eigenvalues --   -0.36435  -0.36074  -0.35555  -0.35440  -0.35288
 Alpha  occ. eigenvalues --   -0.35182  -0.34963  -0.34653  -0.33995  -0.33312
 Alpha  occ. eigenvalues --   -0.32999  -0.32541  -0.32386  -0.30533  -0.29722
 Alpha  occ. eigenvalues --   -0.29564  -0.29507  -0.28108  -0.27541  -0.22648
 Alpha  occ. eigenvalues --   -0.21136
 Alpha virt. eigenvalues --   -0.05655  -0.03616   0.01335   0.04421   0.04804
 Alpha virt. eigenvalues --    0.06146   0.07100   0.07159   0.07397   0.08487
 Alpha virt. eigenvalues --    0.08969   0.10663   0.11057   0.11195   0.11783

 Mulliken charges:
               1
     1  Mg   0.818396
     2  C    0.038509
     3  C   -0.215246
     4  C   -0.205130
     5  C   -0.140344
     6  N   -0.620590
     7  C    0.305892
     8  C   -0.123640
     9  C   -0.136836
    10  C    0.310230
    11  C   -0.297840
    12  C   -0.165556
    13  C   -0.260745
    14  C    0.603131
    15  O   -0.511974
    16  O   -0.449916
    17  N   -0.712223
    18  C    0.317252
    19  C   -0.001386
    20  C    0.053095
    21  C    0.301940
    22  C   -0.337509
    23  C   -0.091760
    24  C   -0.235035
    25  N   -0.663151
    26  C    0.246765
    27  C    0.078010
    28  C   -0.004910
    29  C    0.250261
    30  C   -0.375280
    31  C   -0.249663
    32  C   -0.263688
    33  N   -0.751450
    34  C    0.264057
    35  C    0.012840
    36  C    0.024926
    37  C    0.362614
    38  C   -0.372650
    39  C    0.350344
    40  O   -0.467374
    41  C   -0.343409
    42  C    0.633531
    43  O   -0.455073
    44  O   -0.446125
    45  C   -0.086215
    46  C   -0.030651
    47  C   -0.114444
    48  C    0.097478
    49  C   -0.349744
    50  C   -0.229394
    51  C   -0.171890
    52  C   -0.174548
    53  C   -0.038950
    54  C   -0.301588
    55  C   -0.152497
    56  C   -0.189999
    57  C   -0.158255
    58  C   -0.055849
    59  C   -0.325033
    60  C   -0.150839
    61  C   -0.169045
    62  C   -0.136733
    63  C   -0.084372
    64  C   -0.294743
    65  C   -0.300682
    66  H    0.065320
    67  H    0.074690
    68  H    0.093331
    69  H    0.123338
    70  H    0.093274
    71  H    0.112393
    72  H    0.119354
    73  H    0.097268
    74  H    0.110949
    75  H    0.101586
    76  H    0.123913
    77  H    0.110537
    78  H    0.119080
    79  H    0.131608
    80  H    0.120237
    81  H    0.096787
    82  H    0.099683
    83  H    0.098349
    84  H    0.125539
    85  H    0.110984
    86  H    0.118442
    87  H    0.089647
    88  H    0.104860
    89  H    0.035342
    90  H    0.126671
    91  H    0.103403
    92  H    0.123670
    93  H    0.148582
    94  H    0.130294
    95  H    0.155966
    96  H    0.128684
    97  H    0.149933
    98  H    0.117798
    99  H    0.147517
   100  H    0.137227
   101  H    0.109269
   102  H    0.133674
   103  H    0.112948
   104  H    0.117143
   105  H    0.096307
   106  H    0.094521
   107  H    0.111660
   108  H    0.089549
   109  H    0.091422
   110  H    0.084036
   111  H    0.072620
   112  H    0.100039
   113  H    0.091023
   114  H    0.072032
   115  H    0.093429
   116  H    0.087737
   117  H    0.095894
   118  H    0.080751
   119  H    0.089692
   120  H    0.056790
   121  H    0.084386
   122  H    0.088377
   123  H    0.108339
   124  H    0.107692
   125  H    0.095420
   126  H    0.041316
   127  H    0.111098
   128  H    0.041233
   129  H    0.081192
   130  H    0.092157
   131  H    0.045278
   132  H    0.112107
   133  H    0.119979
   134  H    0.085903
   135  H    0.086572
   136  H    0.110757
   137  H    0.106108
 Sum of Mulliken charges =   0.00000

 Dipole moment (field-independent basis, Debye):
    X=              3.4825    Y=              4.2550    Z=              1.0413  Tot=              5.5961
 Quadrupole moment (field-independent basis, Debye-Ang):
   XX=           -347.2661   YY=           -392.4119   ZZ=           -395.5777
   XY=            -15.5483   XZ=             -2.7264   YZ=             -3.8411

 Normal termination of Gaussian 09 at Mon Jul  1 12:14:35 2019.
