 Gaussian 09, Revision D.01,
 Gaussian 09:  ES64L-G09RevD.01 24-Apr-2013

 -------------------------------------
 # td=(NStates=1) CAM-B3LYP/6-31G(d,p)
 -------------------------------------

 --
 TD
 --
 Symbolic Z-matrix:
 Charge =  0 Multiplicity = 1

                         Standard orientation:
 ---------------------------------------------------------------------
 Center     Atomic      Atomic             Coordinates (Angstroms)
 Number     Number       Type             X           Y           Z
 ---------------------------------------------------------------------
      1         12           0       -7.159641    0.502416    0.116810
      2          6           0       -4.855556   -1.941167    0.432852
      3          6           0       -4.842468    2.870498    1.181964
      4          6           0       -9.430187    3.028681   -0.266317
      5          6           0       -9.613620   -1.746868   -0.667097
      6          7           0       -5.145852    0.383088    0.739881
      7          6           0       -4.386945   -0.730795    0.842010
      8          6           0       -3.037731   -0.325846    1.278751
      9          6           0       -3.099093    1.080779    1.637753
     10          6           0       -4.489745    1.497302    1.161742
     11          6           0       -2.915478    1.314587    3.209573
     12          6           0       -2.035013   -0.508542    0.046475
     13          6           0       -0.470840   -0.358511    0.474094
     14          6           0        0.424853   -0.508492   -0.728324
     15          8           0        0.193330   -0.817266   -1.862222
     16          8           0        1.720747   -0.331535   -0.271810
     17          7           0       -7.100458    2.504475    0.317314
     18          6           0       -6.135984    3.297442    0.814712
     19          6           0       -6.499873    4.708512    0.877186
     20          6           0       -7.716301    4.813666    0.386273
     21          6           0       -8.125985    3.384773    0.098680
     22          6           0       -5.562519    5.860396    1.298770
     23          6           0       -8.594306    5.889780    0.274976
     24          6           0       -8.292388    7.220282   -0.025317
     25          7           0       -9.165063    0.669019   -0.484377
     26          6           0       -9.875574    1.716796   -0.619933
     27          6           0      -11.194812    1.458190   -1.142460
     28          6           0      -11.262447    0.068761   -1.219349
     29          6           0       -9.941474   -0.407209   -0.821243
     30          6           0      -12.173398    2.353944   -1.354624
     31          6           0      -12.379020   -0.774215   -1.642368
     32          6           0      -12.285024   -1.124782   -3.092128
     33          7           0       -7.273244   -1.405789    0.017412
     34          6           0       -8.409403   -2.260900   -0.409984
     35          6           0       -7.891783   -3.634349   -0.494029
     36          6           0       -6.595977   -3.541459   -0.052825
     37          6           0       -6.204487   -2.139254    0.114985
     38          6           0       -8.691453   -4.934216   -0.720724
     39          6           0       -5.339547   -4.355630    0.143062
     40          8           0       -5.133624   -5.482306    0.226833
     41          6           0       -4.215947   -3.305144    0.482122
     42          6           0       -3.539387   -3.580798    1.822685
     43          8           0       -3.761863   -2.993020    2.940761
     44          8           0       -2.572518   -4.591384    1.639574
     45          6           0       -1.898913   -5.007828    2.898451
     46          6           0        2.697432   -0.556778   -1.270454
     47          6           0        4.067879   -0.436773   -0.802547
     48          6           0        5.221222    0.238139   -1.253515
     49          6           0        5.286177    0.937707   -2.514359
     50          6           0        6.465316    0.377753   -0.281038
     51          6           0        7.649171   -0.254854   -0.908891
     52          6           0        8.939255   -0.105769   -0.199408
     53          6           0       10.324119   -0.519238   -0.838996
     54          6           0       10.254884   -1.950578   -1.267291
     55          6           0       11.440457   -0.227812    0.061560
     56          6           0       12.822293   -0.584589   -0.555541
     57          6           0       14.040682   -0.202920    0.264245
     58          6           0       15.469384   -0.314798   -0.430925
     59          6           0       15.694959   -1.720616   -0.932048
     60          6           0       16.503141    0.258083    0.523495
     61          6           0       17.886684    0.475453   -0.174840
     62          6           0       18.830196    1.187656    0.833917
     63          6           0       20.201134    1.445873    0.324678
     64          6           0       20.286785    2.224390   -1.019638
     65          6           0       21.125903    2.104277    1.284903
     66          1           0       -4.061580    3.722810    1.396951
     67          1           0      -10.063214    3.822726   -0.396379
     68          1           0      -10.403896   -2.513990   -1.112261
     69          1           0       -2.838091   -0.964254    1.900020
     70          1           0       -2.233043    1.880591    1.240412
     71          1           0       -1.912942    0.973082    3.483686
     72          1           0       -3.320525    2.298141    3.669892
     73          1           0       -3.612176    0.612944    3.602166
     74          1           0       -2.157092   -1.565314   -0.477488
     75          1           0       -2.146434    0.260406   -0.589940
     76          1           0       -0.256329    0.669330    1.042518
     77          1           0       -0.241824   -1.272752    1.202657
     78          1           0       -4.874822    6.423083    0.746792
     79          1           0       -6.243901    6.614044    1.778513
     80          1           0       -4.866446    5.576201    2.216093
     81          1           0       -9.697038    5.857935    0.265462
     82          1           0       -9.180528    8.057824   -0.216549
     83          1           0       -7.340546    7.582869   -0.313188
     84          1           0      -11.845285    3.058498   -2.329936
     85          1           0      -13.055162    2.095703   -1.582276
     86          1           0      -12.293420    3.103771   -0.474380
     87          1           0      -12.736113   -1.501539   -1.073674
     88          1           0      -13.259014   -0.210246   -1.515195
     89          1           0      -13.195358   -1.517351   -3.325306
     90          1           0      -12.221266   -0.313996   -3.778530
     91          1           0      -11.514119   -2.071295   -3.264458
     92          1           0       -9.369037   -4.834555   -1.731270
     93          1           0       -8.076186   -5.787446   -0.702219
     94          1           0       -9.321744   -5.125860    0.256312
     95          1           0       -3.423564   -3.402001   -0.149886
     96          1           0       -1.317597   -4.077164    3.289894
     97          1           0       -2.766877   -5.229726    3.683186
     98          1           0       -1.202519   -5.692540    2.343056
     99          1           0        2.496631   -1.653527   -1.340134
    100          1           0        2.608054   -0.008530   -2.252424
    101          1           0        4.235679   -0.864251    0.282173
    102          1           0        4.245023    0.823677   -2.753994
    103          1           0        5.671799    2.054984   -2.565370
    104          1           0        5.822687    0.407720   -3.414879
    105          1           0        6.631130    1.475979   -0.342737
    106          1           0        6.395920    0.198573    0.964739
    107          1           0        7.473886   -1.263861   -1.111383
    108          1           0        7.659804    0.321440   -1.861850
    109          1           0        8.955783    1.004264    0.242420
    110          1           0        8.939475   -0.792012    0.692730
    111          1           0       10.247298    0.315725   -1.574812
    112          1           0        9.409640   -2.187751   -1.799361
    113          1           0       10.949485   -2.349478   -1.962941
    114          1           0       10.230456   -2.615698   -0.415212
    115          1           0       11.505903    0.811570    0.383100
    116          1           0       11.346135   -0.932002    0.989114
    117          1           0       12.812993   -1.796951   -0.773855
    118          1           0       12.737901   -0.159515   -1.621121
    119          1           0       14.035723    0.876453    0.698907
    120          1           0       14.106053   -0.900311    1.026728
    121          1           0       15.464373    0.390286   -1.341157
    122          1           0       15.625630   -2.433249   -0.147196
    123          1           0       14.788925   -1.919059   -1.707135
    124          1           0       16.649070   -1.938649   -1.534529
    125          1           0       16.217352    1.156926    0.716177
    126          1           0       16.611157   -0.411712    1.522761
    127          1           0       18.456945   -0.521793   -0.428388
    128          1           0       17.653739    1.138762   -1.061449
    129          1           0       17.951574    2.112678    1.034713
    130          1           0       18.718160    0.690393    1.799059
    131          1           0       20.653102    0.411642    0.335514
    132          1           0       19.664347    3.047297   -0.910966
    133          1           0       21.298387    2.527538   -1.204203
    134          1           0       20.123747    1.501664   -1.745813
    135          1           0       21.061352    1.759758    2.428276
    136          1           0       22.157104    2.202217    0.845136
    137          1           0       20.799261    3.110491    1.524065
 ---------------------------------------------------------------------

 SCF Done:  E(RCAM-B3LYP) =  -2932.59470413     A.U. after   17 cycles

 Excitation energies and oscillator strengths:

 Excited State   1:      Singlet-A      2.1501 eV  576.63 nm  f=0.2102  <S**2>=0.000
     240 -> 243       -0.25831
     241 -> 242        0.63861
 This state for optimization and/or second-order correction.
 Total Energy, E(TD-HF/TD-KS) =  -2932.51568807
 Copying the excited state density for this state as the 1-particle RhoCI density.

 The electronic state is 1-A.
 Alpha  occ. eigenvalues --  -46.83276 -19.26411 -19.25632 -19.22045 -19.21721
 Alpha  occ. eigenvalues --  -19.21079 -14.41294 -14.40043 -14.39214 -14.38430
 Alpha  occ. eigenvalues --  -10.40214 -10.39701 -10.35234 -10.33262 -10.31772
 Alpha  occ. eigenvalues --  -10.31416 -10.30231 -10.30201 -10.30051 -10.29630
 Alpha  occ. eigenvalues --  -10.28930 -10.28803 -10.28701 -10.28618 -10.28552
 Alpha  occ. eigenvalues --  -10.28300 -10.28090 -10.28079 -10.27696 -10.27634
 Alpha  occ. eigenvalues --  -10.27554 -10.27535 -10.27329 -10.27277 -10.27210
 Alpha  occ. eigenvalues --  -10.27210 -10.27116 -10.27063 -10.26923 -10.26427
 Alpha  occ. eigenvalues --  -10.26361 -10.26088 -10.26084 -10.25965 -10.25918
 Alpha  occ. eigenvalues --  -10.25917 -10.25902 -10.25779 -10.25688 -10.25568
 Alpha  occ. eigenvalues --  -10.25215 -10.25168 -10.25128 -10.25093 -10.25026
 Alpha  occ. eigenvalues --  -10.24966 -10.24956 -10.24867 -10.24685 -10.24485
 Alpha  occ. eigenvalues --  -10.24300 -10.24079 -10.23979 -10.23409 -10.23343
 Alpha  occ. eigenvalues --   -3.12638  -1.87325  -1.86888  -1.86835  -1.18540
 Alpha  occ. eigenvalues --   -1.15727  -1.14605  -1.10200  -1.06571  -1.05455
 Alpha  occ. eigenvalues --   -1.04776  -1.04205  -1.02599  -0.92372  -0.91555
 Alpha  occ. eigenvalues --   -0.90617  -0.90516  -0.90162  -0.90096  -0.89902
 Alpha  occ. eigenvalues --   -0.88632  -0.88586  -0.87478  -0.87042  -0.86443
 Alpha  occ. eigenvalues --   -0.85339  -0.84879  -0.84293  -0.83267  -0.82748
 Alpha  occ. eigenvalues --   -0.81557  -0.80673  -0.80456  -0.80142  -0.78041
 Alpha  occ. eigenvalues --   -0.77950  -0.77342  -0.76368  -0.76171  -0.75637
 Alpha  occ. eigenvalues --   -0.75063  -0.75017  -0.74734  -0.73010  -0.72293
 Alpha  occ. eigenvalues --   -0.71808  -0.70963  -0.70163  -0.68855  -0.68201
 Alpha  occ. eigenvalues --   -0.66765  -0.66147  -0.65994  -0.64979  -0.63598
 Alpha  occ. eigenvalues --   -0.63337  -0.62593  -0.62383  -0.62211  -0.62060
 Alpha  occ. eigenvalues --   -0.61150  -0.61006  -0.60550  -0.59844  -0.59214
 Alpha  occ. eigenvalues --   -0.58736  -0.58439  -0.57576  -0.57314  -0.57203
 Alpha  occ. eigenvalues --   -0.56485  -0.56079  -0.55857  -0.55608  -0.54791
 Alpha  occ. eigenvalues --   -0.54525  -0.53833  -0.53817  -0.53573  -0.53446
 Alpha  occ. eigenvalues --   -0.52833  -0.52526  -0.52460  -0.52236  -0.52137
 Alpha  occ. eigenvalues --   -0.51341  -0.51182  -0.51064  -0.50683  -0.50521
 Alpha  occ. eigenvalues --   -0.50338  -0.50135  -0.50081  -0.49882  -0.49555
 Alpha  occ. eigenvalues --   -0.49289  -0.49065  -0.48767  -0.48724  -0.48264
 Alpha  occ. eigenvalues --   -0.48082  -0.48030  -0.47668  -0.47407  -0.47330
 Alpha  occ. eigenvalues --   -0.46985  -0.46835  -0.46600  -0.46394  -0.46115
 Alpha  occ. eigenvalues --   -0.45907  -0.45607  -0.45447  -0.45182  -0.45083
 Alpha  occ. eigenvalues --   -0.44930  -0.44917  -0.44574  -0.44290  -0.44095
 Alpha  occ. eigenvalues --   -0.44014  -0.43838  -0.43598  -0.43295  -0.43215
 Alpha  occ. eigenvalues --   -0.43061  -0.42933  -0.42709  -0.42577  -0.42178
 Alpha  occ. eigenvalues --   -0.42134  -0.41965  -0.41824  -0.41615  -0.41555
 Alpha  occ. eigenvalues --   -0.41361  -0.41143  -0.41003  -0.40555  -0.40157
 Alpha  occ. eigenvalues --   -0.40075  -0.39842  -0.39623  -0.39211  -0.39194
 Alpha  occ. eigenvalues --   -0.39087  -0.38789  -0.38612  -0.38336  -0.37836
 Alpha  occ. eigenvalues --   -0.37447  -0.37192  -0.37054  -0.36671  -0.36605
 Alpha  occ. eigenvalues --   -0.36267  -0.36127  -0.35911  -0.35793  -0.35566
 Alpha  occ. eigenvalues --   -0.35270  -0.34540  -0.34445  -0.33717  -0.33609
 Alpha  occ. eigenvalues --   -0.33295  -0.32801  -0.32254  -0.30787  -0.30030
 Alpha  occ. eigenvalues --   -0.29712  -0.28440  -0.28321  -0.26984  -0.23359
 Alpha  occ. eigenvalues --   -0.20587
 Alpha virt. eigenvalues --   -0.05180  -0.03035   0.01856   0.03555   0.04340
 Alpha virt. eigenvalues --    0.04700   0.05455   0.06046   0.06794   0.07531
 Alpha virt. eigenvalues --    0.08535   0.10339   0.10999   0.11090   0.12009

 Mulliken charges:
               1
     1  Mg   0.811548
     2  C    0.064482
     3  C   -0.218951
     4  C   -0.158671
     5  C   -0.178096
     6  N   -0.661058
     7  C    0.312996
     8  C   -0.072334
     9  C   -0.172703
    10  C    0.361634
    11  C   -0.317675
    12  C   -0.176021
    13  C   -0.278373
    14  C    0.620923
    15  O   -0.454809
    16  O   -0.492886
    17  N   -0.688491
    18  C    0.321414
    19  C    0.025536
    20  C    0.093410
    21  C    0.269794
    22  C   -0.388084
    23  C   -0.130364
    24  C   -0.246296
    25  N   -0.671119
    26  C    0.318238
    27  C    0.083034
    28  C    0.018013
    29  C    0.256818
    30  C   -0.387053
    31  C   -0.248321
    32  C   -0.293883
    33  N   -0.767839
    34  C    0.249954
    35  C    0.018641
    36  C   -0.053781
    37  C    0.349796
    38  C   -0.358504
    39  C    0.384216
    40  O   -0.396486
    41  C   -0.312333
    42  C    0.614029
    43  O   -0.502993
    44  O   -0.481537
    45  C   -0.081021
    46  C    0.043606
    47  C   -0.132076
    48  C    0.096413
    49  C   -0.359450
    50  C   -0.215856
    51  C   -0.147549
    52  C   -0.183510
    53  C   -0.053809
    54  C   -0.325705
    55  C   -0.150440
    56  C   -0.179812
    57  C   -0.164755
    58  C   -0.066494
    59  C   -0.300188
    60  C   -0.146854
    61  C   -0.181615
    62  C   -0.148135
    63  C   -0.058264
    64  C   -0.311835
    65  C   -0.305701
    66  H    0.097419
    67  H    0.069925
    68  H    0.095448
    69  H    0.095959
    70  H    0.083768
    71  H    0.112604
    72  H    0.107022
    73  H    0.129249
    74  H    0.107941
    75  H    0.131320
    76  H    0.131285
    77  H    0.131911
    78  H    0.140257
    79  H    0.121270
    80  H    0.093255
    81  H    0.112627
    82  H    0.089765
    83  H    0.112864
    84  H    0.077862
    85  H    0.114396
    86  H    0.102801
    87  H    0.113726
    88  H    0.098854
    89  H    0.108522
    90  H    0.117548
    91  H    0.077675
    92  H    0.104560
    93  H    0.152455
    94  H    0.124015
    95  H    0.157091
    96  H    0.120744
    97  H    0.148487
    98  H    0.142754
    99  H    0.116798
   100  H    0.118488
   101  H    0.082761
   102  H    0.107823
   103  H    0.111820
   104  H    0.116370
   105  H    0.098294
   106  H    0.072842
   107  H    0.108180
   108  H    0.086529
   109  H    0.062115
   110  H    0.075254
   111  H    0.085178
   112  H    0.109134
   113  H    0.110553
   114  H    0.105466
   115  H    0.092360
   116  H    0.069629
   117  H    0.073925
   118  H    0.079854
   119  H    0.075364
   120  H    0.105211
   121  H    0.069939
   122  H    0.104011
   123  H    0.083843
   124  H    0.095871
   125  H    0.102775
   126  H    0.066063
   127  H    0.074713
   128  H    0.096288
   129  H    0.027188
   130  H    0.099900
   131  H    0.089033
   132  H    0.120551
   133  H    0.100609
   134  H    0.117494
   135  H    0.074666
   136  H    0.095688
   137  H    0.099273
 Sum of Mulliken charges =   0.00000

 Dipole moment (field-independent basis, Debye):
    X=              0.1736    Y=              3.6823    Z=             -0.2944  Tot=              3.6981
 Quadrupole moment (field-independent basis, Debye-Ang):
   XX=           -347.6112   YY=           -385.0866   ZZ=           -401.4419
   XY=            -17.7747   XZ=              5.6801   YZ=             -3.1871

 Normal termination of Gaussian 09 at Sat Jun 29 11:06:20 2019.
