 Gaussian 09, Revision D.01,
 Gaussian 09:  ES64L-G09RevD.01 24-Apr-2013

 -------------------------------------
 # td=(NStates=1) CAM-B3LYP/6-31G(d,p)
 -------------------------------------

 --
 TD
 --
 Symbolic Z-matrix:
 Charge =  0 Multiplicity = 1

                         Standard orientation:
 ---------------------------------------------------------------------
 Center     Atomic      Atomic             Coordinates (Angstroms)
 Number     Number       Type             X           Y           Z
 ---------------------------------------------------------------------
      1         12           0       -7.148571    0.539558    0.156716
      2          6           0       -4.832064   -1.964001    0.524199
      3          6           0       -4.844293    2.877360    1.178750
      4          6           0       -9.428911    3.034177   -0.332757
      5          6           0       -9.429840   -1.835066   -0.846117
      6          7           0       -5.052874    0.447657    0.788118
      7          6           0       -4.350778   -0.730391    0.826016
      8          6           0       -2.882753   -0.342536    1.176468
      9          6           0       -2.967870    1.085833    1.734268
     10          6           0       -4.400569    1.511070    1.241199
     11          6           0       -3.062138    1.273787    3.273287
     12          6           0       -1.859565   -0.539888    0.042754
     13          6           0       -0.371800   -0.190221    0.454579
     14          6           0        0.541075   -0.538311   -0.705963
     15          8           0        0.335516   -0.939300   -1.825694
     16          8           0        1.771490   -0.358322   -0.301280
     17          7           0       -7.151151    2.574060    0.501654
     18          6           0       -6.152019    3.335861    0.905988
     19          6           0       -6.516529    4.750414    0.902263
     20          6           0       -7.797976    4.816380    0.380444
     21          6           0       -8.211007    3.462183    0.199887
     22          6           0       -5.621930    5.834837    1.443772
     23          6           0       -8.699512    5.929033    0.209069
     24          6           0       -8.290679    7.218016   -0.029265
     25          7           0       -9.101704    0.562894   -0.401164
     26          6           0       -9.840220    1.696103   -0.655229
     27          6           0      -11.061170    1.422832   -1.146182
     28          6           0      -11.207485    0.038945   -1.249293
     29          6           0       -9.872616   -0.439034   -0.859820
     30          6           0      -12.247856    2.399646   -1.400257
     31          6           0      -12.369146   -0.739211   -1.793849
     32          6           0      -12.078140   -1.053166   -3.306247
     33          7           0       -7.268722   -1.488454    0.088579
     34          6           0       -8.249910   -2.286410   -0.458875
     35          6           0       -7.783125   -3.622181   -0.389738
     36          6           0       -6.473752   -3.618012   -0.066322
     37          6           0       -6.172566   -2.225377    0.206645
     38          6           0       -8.681148   -4.789930   -0.864503
     39          6           0       -5.267025   -4.375970    0.111109
     40          8           0       -5.084706   -5.542265    0.012433
     41          6           0       -4.161057   -3.344544    0.568377
     42          6           0       -3.464179   -3.708480    1.846599
     43          8           0       -3.769722   -3.115190    2.872245
     44          8           0       -2.605913   -4.702533    1.700203
     45          6           0       -1.956821   -5.183456    2.874648
     46          6           0        2.878932   -0.586906   -1.299577
     47          6           0        4.121992   -0.328771   -0.619197
     48          6           0        5.068169    0.404130   -1.080291
     49          6           0        5.080666    1.209029   -2.319382
     50          6           0        6.325988    0.566743   -0.313995
     51          6           0        7.545381   -0.129161   -1.017042
     52          6           0        8.896392   -0.008030   -0.132349
     53          6           0       10.141108   -0.501995   -0.798291
     54          6           0       10.145289   -2.071391   -1.219531
     55          6           0       11.377935   -0.300269    0.061455
     56          6           0       12.659288   -0.499603   -0.637510
     57          6           0       13.936825   -0.116036    0.229664
     58          6           0       15.323149   -0.179239   -0.457539
     59          6           0       15.585203   -1.671146   -0.786073
     60          6           0       16.351402    0.323474    0.484572
     61          6           0       17.767506    0.543532   -0.164926
     62          6           0       18.755976    1.280478    0.823354
     63          6           0       20.141991    1.298115    0.176498
     64          6           0       20.342070    1.990571   -1.127037
     65          6           0       21.078616    1.943588    1.234939
     66          1           0       -4.124525    3.733327    1.394053
     67          1           0      -10.329913    3.803092   -0.511119
     68          1           0      -10.347395   -2.368226   -1.137304
     69          1           0       -2.652153   -0.989401    2.177049
     70          1           0       -1.946156    1.602242    1.432103
     71          1           0       -2.158940    0.919025    3.732459
     72          1           0       -3.166362    2.434781    3.245132
     73          1           0       -3.956356    0.796638    3.650934
     74          1           0       -1.810331   -1.660367   -0.314656
     75          1           0       -2.062977    0.107759   -0.629953
     76          1           0       -0.211447    0.978465    0.582323
     77          1           0        0.043069   -0.784856    1.444897
     78          1           0       -4.974508    6.180430    0.682707
     79          1           0       -6.319700    6.688664    1.960514
     80          1           0       -4.923653    5.288536    2.297409
     81          1           0       -9.677935    5.871836    0.055599
     82          1           0       -9.195352    7.852834   -0.234090
     83          1           0       -7.190419    7.336323   -0.081063
     84          1           0      -11.825776    3.010116   -2.290255
     85          1           0      -13.125646    1.804971   -1.712742
     86          1           0      -12.482298    3.052008   -0.581924
     87          1           0      -12.595198   -1.759991   -1.319265
     88          1           0      -13.402260   -0.095854   -1.697880
     89          1           0      -12.979220   -1.855710   -3.726745
     90          1           0      -12.175489   -0.287268   -3.971481
     91          1           0      -11.047548   -1.603527   -3.253714
     92          1           0       -9.186394   -4.610303   -1.776707
     93          1           0       -8.120663   -5.851793   -0.896512
     94          1           0       -9.489503   -4.960764   -0.058941
     95          1           0       -3.519973   -3.529147   -0.314735
     96          1           0       -1.411367   -4.469455    3.443410
     97          1           0       -2.650924   -5.376165    3.761687
     98          1           0       -1.219868   -6.052264    2.522263
     99          1           0        2.767350   -1.565043   -1.722945
    100          1           0        2.604182    0.119284   -2.040175
    101          1           0        4.381185   -0.947877    0.323210
    102          1           0        4.143344    1.433278   -2.544019
    103          1           0        5.500365    2.244275   -2.119026
    104          1           0        5.673974    0.670254   -3.121679
    105          1           0        6.473063    1.559832    0.020406
    106          1           0        6.178867    0.088572    0.603295
    107          1           0        7.271200   -1.297427   -1.134996
    108          1           0        7.719308    0.294232   -1.978593
    109          1           0        9.032857    1.134939    0.062463
    110          1           0        8.575739   -0.576087    0.813547
    111          1           0       10.408781    0.041895   -1.914214
    112          1           0        9.142087   -2.314596   -1.767758
    113          1           0       10.890696   -2.429965   -1.747451
    114          1           0       10.283612   -2.760065   -0.156747
    115          1           0       11.367487    0.709762    0.502083
    116          1           0       11.432516   -1.059781    0.961481
    117          1           0       12.703721   -1.583446   -0.809580
    118          1           0       12.663222    0.051388   -1.623630
    119          1           0       13.723073    0.998629    0.392103
    120          1           0       14.047977   -0.685659    1.132134
    121          1           0       15.275028    0.465735   -1.449609
    122          1           0       15.477929   -2.211880    0.098460
    123          1           0       15.015684   -2.024685   -1.656890
    124          1           0       16.756615   -1.744213   -1.180997
    125          1           0       15.961027    1.357482    0.745570
    126          1           0       16.495513   -0.062020    1.492569
    127          1           0       18.112360   -0.501150   -0.554476
    128          1           0       17.648376    1.330922   -0.925753
    129          1           0       18.517365    2.248721    0.996501
    130          1           0       18.766954    0.709426    1.711074
    131          1           0       20.226080    0.332774    0.165536
    132          1           0       19.937071    3.120213   -1.230102
    133          1           0       21.431261    1.894780   -1.460934
    134          1           0       19.723718    1.408356   -1.996900
    135          1           0       20.994672    1.374935    2.236688
    136          1           0       22.056590    1.972247    0.923435
    137          1           0       20.736009    3.144663    1.496400
 ---------------------------------------------------------------------

 SCF Done:  E(RCAM-B3LYP) =  -2932.70648887     A.U. after   15 cycles

 Excitation energies and oscillator strengths:

 Excited State   1:      Singlet-A      2.1999 eV  563.60 nm  f=0.1672  <S**2>=0.000
     240 -> 242       -0.14136
     240 -> 243        0.27511
     241 -> 242        0.61183
     241 -> 243        0.14195
 This state for optimization and/or second-order correction.
 Total Energy, E(TD-HF/TD-KS) =  -2932.62564564
 Copying the excited state density for this state as the 1-particle RhoCI density.

 The electronic state is 1-A.
 Alpha  occ. eigenvalues --  -46.84535 -19.28038 -19.24745 -19.20735 -19.20720
 Alpha  occ. eigenvalues --  -19.19756 -14.41439 -14.39308 -14.39158 -14.38545
 Alpha  occ. eigenvalues --  -10.39621 -10.38057 -10.35159 -10.32812 -10.31611
 Alpha  occ. eigenvalues --  -10.31066 -10.31006 -10.29747 -10.29364 -10.29314
 Alpha  occ. eigenvalues --  -10.28820 -10.28597 -10.28443 -10.28440 -10.28412
 Alpha  occ. eigenvalues --  -10.28390 -10.28250 -10.28193 -10.28073 -10.28028
 Alpha  occ. eigenvalues --  -10.27677 -10.27610 -10.27370 -10.27263 -10.27240
 Alpha  occ. eigenvalues --  -10.27116 -10.26924 -10.26894 -10.26733 -10.26724
 Alpha  occ. eigenvalues --  -10.26721 -10.26622 -10.26613 -10.26415 -10.26347
 Alpha  occ. eigenvalues --  -10.26207 -10.26198 -10.25979 -10.25917 -10.25734
 Alpha  occ. eigenvalues --  -10.25698 -10.25575 -10.25570 -10.25471 -10.25396
 Alpha  occ. eigenvalues --  -10.25367 -10.25246 -10.25141 -10.25084 -10.25032
 Alpha  occ. eigenvalues --  -10.24919 -10.24743 -10.24705 -10.24203 -10.23496
 Alpha  occ. eigenvalues --   -3.13493  -1.88208  -1.87729  -1.87659  -1.19584
 Alpha  occ. eigenvalues --   -1.18245  -1.13241  -1.09603  -1.07784  -1.05420
 Alpha  occ. eigenvalues --   -1.04032  -1.03518  -1.02753  -0.92874  -0.92861
 Alpha  occ. eigenvalues --   -0.90773  -0.89942  -0.89515  -0.89214  -0.88547
 Alpha  occ. eigenvalues --   -0.88236  -0.87753  -0.87354  -0.86784  -0.86100
 Alpha  occ. eigenvalues --   -0.84908  -0.84032  -0.83751  -0.82942  -0.82228
 Alpha  occ. eigenvalues --   -0.81573  -0.81163  -0.80159  -0.79722  -0.78201
 Alpha  occ. eigenvalues --   -0.77404  -0.76913  -0.76546  -0.75933  -0.75033
 Alpha  occ. eigenvalues --   -0.74999  -0.74491  -0.74121  -0.73513  -0.72584
 Alpha  occ. eigenvalues --   -0.71198  -0.70604  -0.69077  -0.68892  -0.68540
 Alpha  occ. eigenvalues --   -0.66759  -0.66662  -0.65518  -0.65031  -0.64150
 Alpha  occ. eigenvalues --   -0.63647  -0.63492  -0.62816  -0.62194  -0.62109
 Alpha  occ. eigenvalues --   -0.61378  -0.60871  -0.60253  -0.59901  -0.59445
 Alpha  occ. eigenvalues --   -0.58769  -0.58123  -0.57560  -0.57340  -0.57055
 Alpha  occ. eigenvalues --   -0.55957  -0.55606  -0.55175  -0.54859  -0.54825
 Alpha  occ. eigenvalues --   -0.54606  -0.54458  -0.54364  -0.53880  -0.53110
 Alpha  occ. eigenvalues --   -0.52961  -0.52097  -0.52005  -0.51705  -0.51661
 Alpha  occ. eigenvalues --   -0.51512  -0.51412  -0.50806  -0.50692  -0.50548
 Alpha  occ. eigenvalues --   -0.50267  -0.50044  -0.49763  -0.49527  -0.49289
 Alpha  occ. eigenvalues --   -0.49049  -0.48995  -0.48774  -0.48632  -0.48365
 Alpha  occ. eigenvalues --   -0.48199  -0.47617  -0.47528  -0.47378  -0.47150
 Alpha  occ. eigenvalues --   -0.46816  -0.46613  -0.46286  -0.46229  -0.46098
 Alpha  occ. eigenvalues --   -0.45830  -0.45630  -0.45294  -0.45184  -0.44790
 Alpha  occ. eigenvalues --   -0.44585  -0.44253  -0.44114  -0.44018  -0.43749
 Alpha  occ. eigenvalues --   -0.43458  -0.43339  -0.43288  -0.43204  -0.42974
 Alpha  occ. eigenvalues --   -0.42834  -0.42742  -0.42445  -0.42354  -0.42147
 Alpha  occ. eigenvalues --   -0.41917  -0.41723  -0.41390  -0.41313  -0.41081
 Alpha  occ. eigenvalues --   -0.40968  -0.40666  -0.40563  -0.40431  -0.40123
 Alpha  occ. eigenvalues --   -0.40030  -0.39867  -0.39600  -0.39307  -0.39048
 Alpha  occ. eigenvalues --   -0.38936  -0.38729  -0.38441  -0.38175  -0.38125
 Alpha  occ. eigenvalues --   -0.37489  -0.37427  -0.37189  -0.36896  -0.36535
 Alpha  occ. eigenvalues --   -0.36244  -0.35987  -0.35794  -0.35715  -0.35658
 Alpha  occ. eigenvalues --   -0.35368  -0.35295  -0.34841  -0.33727  -0.33375
 Alpha  occ. eigenvalues --   -0.33158  -0.32941  -0.32227  -0.31240  -0.30863
 Alpha  occ. eigenvalues --   -0.30452  -0.29994  -0.27830  -0.26998  -0.23144
 Alpha  occ. eigenvalues --   -0.21275
 Alpha virt. eigenvalues --   -0.05678  -0.03362   0.01556   0.04376   0.05411
 Alpha virt. eigenvalues --    0.05911   0.06902   0.07135   0.07352   0.07802
 Alpha virt. eigenvalues --    0.08806   0.10635   0.11133   0.11322   0.11824

 Mulliken charges:
               1
     1  Mg   0.822477
     2  C    0.102561
     3  C   -0.226932
     4  C   -0.189855
     5  C   -0.172007
     6  N   -0.638616
     7  C    0.293443
     8  C   -0.161508
     9  C   -0.159526
    10  C    0.331776
    11  C   -0.289996
    12  C   -0.134888
    13  C   -0.277275
    14  C    0.605916
    15  O   -0.497018
    16  O   -0.484550
    17  N   -0.707468
    18  C    0.364356
    19  C   -0.007686
    20  C    0.051663
    21  C    0.257995
    22  C   -0.373790
    23  C   -0.066641
    24  C   -0.248821
    25  N   -0.691057
    26  C    0.308014
    27  C    0.002349
    28  C    0.033031
    29  C    0.231492
    30  C   -0.353451
    31  C   -0.257382
    32  C   -0.273895
    33  N   -0.738487
    34  C    0.311823
    35  C    0.010410
    36  C    0.048360
    37  C    0.293207
    38  C   -0.371705
    39  C    0.335361
    40  O   -0.428002
    41  C   -0.331639
    42  C    0.648197
    43  O   -0.487090
    44  O   -0.425070
    45  C   -0.100862
    46  C    0.003328
    47  C   -0.124811
    48  C    0.124190
    49  C   -0.349297
    50  C   -0.226319
    51  C   -0.190049
    52  C   -0.165791
    53  C   -0.034701
    54  C   -0.301337
    55  C   -0.150719
    56  C   -0.182769
    57  C   -0.168999
    58  C   -0.058775
    59  C   -0.292541
    60  C   -0.174754
    61  C   -0.189801
    62  C   -0.179253
    63  C   -0.030390
    64  C   -0.300130
    65  C   -0.291816
    66  H    0.078973
    67  H    0.092891
    68  H    0.098335
    69  H    0.106141
    70  H    0.082647
    71  H    0.108905
    72  H    0.100450
    73  H    0.131727
    74  H    0.116618
    75  H    0.125848
    76  H    0.127269
    77  H    0.125321
    78  H    0.137678
    79  H    0.114124
    80  H    0.097668
    81  H    0.084267
    82  H    0.106142
    83  H    0.109944
    84  H    0.111087
    85  H    0.106770
    86  H    0.126020
    87  H    0.108528
    88  H    0.084743
    89  H    0.053432
    90  H    0.130141
    91  H    0.100773
    92  H    0.134499
    93  H    0.127211
    94  H    0.118701
    95  H    0.158652
    96  H    0.133235
    97  H    0.131755
    98  H    0.125637
    99  H    0.141229
   100  H    0.130034
   101  H    0.088361
   102  H    0.117388
   103  H    0.104682
   104  H    0.125873
   105  H    0.105124
   106  H    0.094746
   107  H    0.083925
   108  H    0.103526
   109  H    0.088253
   110  H    0.098225
   111  H    0.053828
   112  H    0.088573
   113  H    0.128571
   114  H    0.055322
   115  H    0.080322
   116  H    0.075686
   117  H    0.095561
   118  H    0.081474
   119  H    0.078131
   120  H    0.092622
   121  H    0.071729
   122  H    0.108672
   123  H    0.107128
   124  H    0.061663
   125  H    0.078953
   126  H    0.091431
   127  H    0.083190
   128  H    0.101042
   129  H    0.099097
   130  H    0.092442
   131  H    0.102871
   132  H    0.089227
   133  H    0.102010
   134  H    0.079472
   135  H    0.086270
   136  H    0.105899
   137  H    0.058836
 Sum of Mulliken charges =   0.00000

 Dipole moment (field-independent basis, Debye):
    X=              2.7344    Y=              3.1812    Z=              0.0109  Tot=              4.1949
 Quadrupole moment (field-independent basis, Debye-Ang):
   XX=           -358.3806   YY=           -394.6454   ZZ=           -400.4821
   XY=            -20.2972   XZ=             13.1083   YZ=             -8.0727

 Normal termination of Gaussian 09 at Fri Jun 28 02:18:06 2019.
