 Gaussian 09, Revision D.01,
 Gaussian 09:  ES64L-G09RevD.01 24-Apr-2013

 -------------------------------------
 # td=(NStates=1) CAM-B3LYP/6-31G(d,p)
 -------------------------------------

 --
 TD
 --
 Symbolic Z-matrix:
 Charge =  0 Multiplicity = 1

                         Standard orientation:
 ---------------------------------------------------------------------
 Center     Atomic      Atomic             Coordinates (Angstroms)
 Number     Number       Type             X           Y           Z
 ---------------------------------------------------------------------
      1         12           0       -7.124844    0.546049    0.053634
      2          6           0       -4.857129   -1.969442    0.441473
      3          6           0       -4.811367    2.818322    1.183498
      4          6           0       -9.355939    3.083661   -0.357203
      5          6           0       -9.560683   -1.740717   -0.707145
      6          7           0       -5.130304    0.372111    0.663234
      7          6           0       -4.359161   -0.761190    0.817868
      8          6           0       -2.971412   -0.359580    1.264729
      9          6           0       -3.055780    1.091997    1.623092
     10          6           0       -4.418453    1.447761    1.172277
     11          6           0       -2.944509    1.244087    3.194754
     12          6           0       -1.930891   -0.661758    0.027212
     13          6           0       -0.467856   -0.414583    0.540510
     14          6           0        0.564349   -0.675790   -0.638815
     15          8           0        0.230243   -1.099585   -1.727682
     16          8           0        1.791714   -0.506097   -0.088340
     17          7           0       -7.091557    2.643526    0.304113
     18          6           0       -6.046038    3.345356    0.788909
     19          6           0       -6.472499    4.760592    0.901387
     20          6           0       -7.682785    4.813996    0.426208
     21          6           0       -8.130134    3.485301    0.220338
     22          6           0       -5.516982    5.856383    1.506377
     23          6           0       -8.632594    5.970567    0.307870
     24          6           0       -8.252319    7.298957   -0.020898
     25          7           0       -9.144171    0.690351   -0.420962
     26          6           0       -9.887595    1.749041   -0.555860
     27          6           0      -11.176686    1.480868   -1.102929
     28          6           0      -11.208803    0.169007   -1.264308
     29          6           0       -9.881453   -0.424635   -0.906950
     30          6           0      -12.207936    2.519515   -1.407353
     31          6           0      -12.407656   -0.661569   -1.789294
     32          6           0      -12.254878   -1.168532   -3.202760
     33          7           0       -7.265117   -1.405004   -0.130846
     34          6           0       -8.301827   -2.209157   -0.455164
     35          6           0       -7.818866   -3.622432   -0.449361
     36          6           0       -6.490297   -3.524783   -0.148519
     37          6           0       -6.199268   -2.212625    0.022320
     38          6           0       -8.568798   -4.903889   -0.883049
     39          6           0       -5.324043   -4.245714    0.234427
     40          8           0       -5.279370   -5.552087    0.213294
     41          6           0       -4.147266   -3.249971    0.472717
     42          6           0       -3.549731   -3.668184    1.892593
     43          8           0       -3.788805   -3.148311    2.961127
     44          8           0       -2.665808   -4.695900    1.801621
     45          6           0       -2.050501   -5.146707    2.935525
     46          6           0        2.891193   -0.694421   -1.054827
     47          6           0        4.192886   -0.421319   -0.481104
     48          6           0        5.099827    0.373697   -1.009571
     49          6           0        4.979626    1.162985   -2.365752
     50          6           0        6.511616    0.559867   -0.292794
     51          6           0        7.665637    0.001609   -1.141555
     52          6           0        8.908563   -0.021067   -0.271902
     53          6           0       10.191659   -0.601911   -0.990006
     54          6           0       10.070497   -1.977370   -1.523752
     55          6           0       11.401238   -0.297455   -0.053339
     56          6           0       12.690038   -0.523639   -0.746017
     57          6           0       13.949232   -0.283504    0.244494
     58          6           0       15.341444   -0.281937   -0.446570
     59          6           0       15.771326   -1.694396   -0.882166
     60          6           0       16.460937    0.362023    0.421941
     61          6           0       17.762202    0.487427   -0.188462
     62          6           0       18.668476    1.265742    0.811178
     63          6           0       20.073870    1.447678    0.300019
     64          6           0       20.374421    2.189807   -0.989801
     65          6           0       21.053983    2.007670    1.468024
     66          1           0       -3.917497    3.381261    1.690402
     67          1           0      -10.006939    3.848146   -0.564354
     68          1           0      -10.475533   -2.449248   -1.107114
     69          1           0       -2.544713   -1.047945    2.105961
     70          1           0       -2.137967    1.573714    1.253126
     71          1           0       -1.846151    1.058196    3.574948
     72          1           0       -3.072824    2.170710    3.659628
     73          1           0       -3.399837    0.341106    4.018188
     74          1           0       -2.218010   -1.595477   -0.246539
     75          1           0       -2.223976   -0.151270   -0.762090
     76          1           0       -0.648495    0.783276    0.849965
     77          1           0       -0.052312   -1.041708    1.384256
     78          1           0       -4.951363    6.385583    0.857817
     79          1           0       -6.213116    6.598836    2.007510
     80          1           0       -4.719451    5.498486    2.271788
     81          1           0       -9.707011    5.688763    0.290715
     82          1           0       -9.085177    8.006590   -0.123404
     83          1           0       -7.291686    7.570808   -0.122110
     84          1           0      -11.702276    3.288987   -2.200189
     85          1           0      -13.110264    1.956888   -1.866066
     86          1           0      -12.452223    2.972217   -0.417932
     87          1           0      -12.688951   -1.490783   -1.098553
     88          1           0      -13.423609    0.104278   -1.791975
     89          1           0      -13.103363   -1.634572   -3.313637
     90          1           0      -12.048286   -0.335826   -3.895704
     91          1           0      -11.324056   -1.866658   -3.371418
     92          1           0       -8.932521   -4.774746   -1.969683
     93          1           0       -8.119234   -5.659774   -0.912396
     94          1           0       -9.445456   -5.015340   -0.235890
     95          1           0       -3.447257   -3.398054   -0.326112
     96          1           0       -1.536594   -4.562816    3.546791
     97          1           0       -2.887670   -5.576589    3.716748
     98          1           0       -1.408263   -5.857690    2.572361
     99          1           0        3.064179   -1.757798   -1.362301
    100          1           0        2.583414   -0.004372   -1.883271
    101          1           0        4.402153   -1.249217    0.342043
    102          1           0        4.130321    1.302798   -2.831805
    103          1           0        5.172122    2.193136   -2.076976
    104          1           0        5.718522    0.989204   -2.971218
    105          1           0        6.770304    1.613457   -0.061981
    106          1           0        6.408662   -0.021819    0.691820
    107          1           0        7.439383   -1.086810   -1.382501
    108          1           0        7.626012    0.657065   -2.050488
    109          1           0        9.079437    1.036628   -0.009834
    110          1           0        8.777420   -0.597996    0.601381
    111          1           0       10.301678    0.056798   -1.957506
    112          1           0        9.157640   -1.977378   -2.123161
    113          1           0       10.988016   -2.260917   -1.919974
    114          1           0       10.193051   -2.719900   -0.704974
    115          1           0       11.360327    0.772931    0.220833
    116          1           0       11.293077   -0.905279    0.757790
    117          1           0       12.786524   -1.531293   -1.066836
    118          1           0       12.680633    0.366683   -1.655614
    119          1           0       13.871067    0.776499    0.472192
    120          1           0       13.833654   -0.998883    1.022376
    121          1           0       15.474200    0.270160   -1.423719
    122          1           0       15.780956   -2.395853    0.066186
    123          1           0       14.983627   -2.220495   -1.465010
    124          1           0       16.664730   -1.688828   -1.456983
    125          1           0       15.856356    1.350965    0.701512
    126          1           0       16.652163   -0.253834    1.336931
    127          1           0       18.343463   -0.409930   -0.398487
    128          1           0       17.615261    0.823773   -1.170168
    129          1           0       18.356491    2.265008    1.072532
    130          1           0       18.598559    0.752772    1.684881
    131          1           0       20.449029    0.388818    0.092387
    132          1           0       20.090243    3.267574   -0.890566
    133          1           0       21.410682    1.999115   -1.118128
    134          1           0       20.018493    1.751731   -1.930641
    135          1           0       20.896140    1.500438    2.389728
    136          1           0       22.082542    2.061027    1.086652
    137          1           0       20.758615    3.017206    1.710207
 ---------------------------------------------------------------------

 SCF Done:  E(RCAM-B3LYP) =  -2932.64984638     A.U. after   18 cycles

 Excitation energies and oscillator strengths:

 Excited State   1:      Singlet-A      2.1041 eV  589.26 nm  f=0.2364  <S**2>=0.000
     240 -> 242       -0.11004
     240 -> 243        0.24232
     241 -> 242        0.64572
 This state for optimization and/or second-order correction.
 Total Energy, E(TD-HF/TD-KS) =  -2932.57252395
 Copying the excited state density for this state as the 1-particle RhoCI density.

 The electronic state is 1-A.
 Alpha  occ. eigenvalues --  -46.84300 -19.27040 -19.26067 -19.21877 -19.21164
 Alpha  occ. eigenvalues --  -19.18847 -14.41812 -14.39319 -14.39252 -14.39158
 Alpha  occ. eigenvalues --  -10.39958 -10.39827 -10.34415 -10.32149 -10.31603
 Alpha  occ. eigenvalues --  -10.30372 -10.30009 -10.29761 -10.29693 -10.29209
 Alpha  occ. eigenvalues --  -10.29024 -10.28827 -10.28704 -10.28609 -10.28588
 Alpha  occ. eigenvalues --  -10.28515 -10.28411 -10.28334 -10.28174 -10.27973
 Alpha  occ. eigenvalues --  -10.27943 -10.27885 -10.27801 -10.27751 -10.27236
 Alpha  occ. eigenvalues --  -10.27113 -10.26842 -10.26838 -10.26716 -10.26638
 Alpha  occ. eigenvalues --  -10.26468 -10.26338 -10.26304 -10.26280 -10.26115
 Alpha  occ. eigenvalues --  -10.26113 -10.26100 -10.26088 -10.25869 -10.25339
 Alpha  occ. eigenvalues --  -10.25236 -10.25176 -10.25052 -10.25007 -10.24731
 Alpha  occ. eigenvalues --  -10.24467 -10.24415 -10.24283 -10.24124 -10.24118
 Alpha  occ. eigenvalues --  -10.24084 -10.24033 -10.23990 -10.23716 -10.23513
 Alpha  occ. eigenvalues --   -3.13376  -1.88085  -1.87592  -1.87576  -1.18832
 Alpha  occ. eigenvalues --   -1.17662  -1.09940  -1.09568  -1.06015  -1.05423
 Alpha  occ. eigenvalues --   -1.04390  -1.03696  -1.03147  -0.93742  -0.91429
 Alpha  occ. eigenvalues --   -0.90784  -0.90127  -0.89472  -0.89154  -0.88689
 Alpha  occ. eigenvalues --   -0.88120  -0.87901  -0.87787  -0.86343  -0.86317
 Alpha  occ. eigenvalues --   -0.85120  -0.84069  -0.84019  -0.83125  -0.82468
 Alpha  occ. eigenvalues --   -0.82194  -0.81565  -0.80962  -0.80840  -0.78604
 Alpha  occ. eigenvalues --   -0.78007  -0.77474  -0.77140  -0.76502  -0.76078
 Alpha  occ. eigenvalues --   -0.75554  -0.75068  -0.74753  -0.73748  -0.72860
 Alpha  occ. eigenvalues --   -0.71796  -0.70788  -0.69267  -0.69066  -0.68760
 Alpha  occ. eigenvalues --   -0.67548  -0.66554  -0.65291  -0.65058  -0.64523
 Alpha  occ. eigenvalues --   -0.64325  -0.63272  -0.63125  -0.62545  -0.62505
 Alpha  occ. eigenvalues --   -0.61252  -0.61135  -0.60578  -0.60365  -0.59106
 Alpha  occ. eigenvalues --   -0.58598  -0.58502  -0.58310  -0.57774  -0.56667
 Alpha  occ. eigenvalues --   -0.56332  -0.55879  -0.55534  -0.55410  -0.54889
 Alpha  occ. eigenvalues --   -0.54764  -0.54608  -0.54141  -0.53880  -0.53721
 Alpha  occ. eigenvalues --   -0.52651  -0.52548  -0.52475  -0.52057  -0.51954
 Alpha  occ. eigenvalues --   -0.51478  -0.51080  -0.51062  -0.50932  -0.50570
 Alpha  occ. eigenvalues --   -0.50292  -0.50243  -0.50211  -0.50148  -0.49964
 Alpha  occ. eigenvalues --   -0.49297  -0.49090  -0.48850  -0.48780  -0.48288
 Alpha  occ. eigenvalues --   -0.48099  -0.48032  -0.47563  -0.47243  -0.47093
 Alpha  occ. eigenvalues --   -0.46706  -0.46660  -0.46526  -0.46371  -0.46259
 Alpha  occ. eigenvalues --   -0.46151  -0.45796  -0.45744  -0.45539  -0.45273
 Alpha  occ. eigenvalues --   -0.45061  -0.45006  -0.44947  -0.44450  -0.44022
 Alpha  occ. eigenvalues --   -0.43949  -0.43796  -0.43601  -0.43531  -0.43478
 Alpha  occ. eigenvalues --   -0.43213  -0.43043  -0.42923  -0.42703  -0.42397
 Alpha  occ. eigenvalues --   -0.42368  -0.42133  -0.41728  -0.41661  -0.41581
 Alpha  occ. eigenvalues --   -0.41157  -0.40859  -0.40705  -0.40203  -0.40060
 Alpha  occ. eigenvalues --   -0.40018  -0.39948  -0.39788  -0.39510  -0.39189
 Alpha  occ. eigenvalues --   -0.38625  -0.38535  -0.38280  -0.38237  -0.38156
 Alpha  occ. eigenvalues --   -0.37738  -0.37651  -0.37083  -0.37010  -0.36658
 Alpha  occ. eigenvalues --   -0.36607  -0.36501  -0.36108  -0.35909  -0.35675
 Alpha  occ. eigenvalues --   -0.35559  -0.35016  -0.34811  -0.33913  -0.33625
 Alpha  occ. eigenvalues --   -0.33615  -0.32802  -0.32369  -0.30667  -0.30183
 Alpha  occ. eigenvalues --   -0.29389  -0.29012  -0.28888  -0.28230  -0.23065
 Alpha  occ. eigenvalues --   -0.21126
 Alpha virt. eigenvalues --   -0.06141  -0.02805   0.01325   0.03221   0.05394
 Alpha virt. eigenvalues --    0.05671   0.06204   0.06248   0.06856   0.07098
 Alpha virt. eigenvalues --    0.08122   0.10274   0.10914   0.11377   0.11535

 Mulliken charges:
               1
     1  Mg   0.827575
     2  C    0.038159
     3  C   -0.209981
     4  C   -0.166709
     5  C   -0.165671
     6  N   -0.658973
     7  C    0.330814
     8  C   -0.171294
     9  C   -0.142826
    10  C    0.365077
    11  C   -0.317391
    12  C   -0.168160
    13  C   -0.253681
    14  C    0.615512
    15  O   -0.461273
    16  O   -0.478973
    17  N   -0.669274
    18  C    0.324952
    19  C    0.002835
    20  C    0.037656
    21  C    0.274362
    22  C   -0.371013
    23  C   -0.100433
    24  C   -0.232416
    25  N   -0.660896
    26  C    0.305942
    27  C    0.043071
    28  C    0.013955
    29  C    0.234408
    30  C   -0.351702
    31  C   -0.249384
    32  C   -0.283511
    33  N   -0.746144
    34  C    0.278121
    35  C   -0.056005
    36  C    0.095507
    37  C    0.304610
    38  C   -0.310022
    39  C    0.326183
    40  O   -0.515680
    41  C   -0.316823
    42  C    0.613711
    43  O   -0.462913
    44  O   -0.428268
    45  C   -0.070821
    46  C    0.021035
    47  C   -0.149583
    48  C    0.109208
    49  C   -0.362317
    50  C   -0.231287
    51  C   -0.179931
    52  C   -0.163415
    53  C   -0.064888
    54  C   -0.307008
    55  C   -0.161224
    56  C   -0.176650
    57  C   -0.173377
    58  C   -0.076514
    59  C   -0.307243
    60  C   -0.145676
    61  C   -0.186244
    62  C   -0.157174
    63  C   -0.072425
    64  C   -0.300549
    65  C   -0.325091
    66  H    0.086341
    67  H    0.066112
    68  H    0.099265
    69  H    0.121442
    70  H    0.117627
    71  H    0.088238
    72  H    0.120952
    73  H    0.101148
    74  H    0.112596
    75  H    0.125294
    76  H    0.097028
    77  H    0.138610
    78  H    0.137674
    79  H    0.118215
    80  H    0.107539
    81  H    0.099134
    82  H    0.107509
    83  H    0.108232
    84  H    0.108415
    85  H    0.105196
    86  H    0.127572
    87  H    0.109459
    88  H    0.062085
    89  H    0.120772
    90  H    0.111551
    91  H    0.093642
    92  H    0.103115
    93  H    0.133595
    94  H    0.115489
    95  H    0.177301
    96  H    0.127448
    97  H    0.094183
    98  H    0.122301
    99  H    0.126570
   100  H    0.117878
   101  H    0.090899
   102  H    0.120824
   103  H    0.112777
   104  H    0.134162
   105  H    0.103781
   106  H    0.094193
   107  H    0.093014
   108  H    0.094781
   109  H    0.086325
   110  H    0.098781
   111  H    0.057624
   112  H    0.112505
   113  H    0.114736
   114  H    0.083647
   115  H    0.091917
   116  H    0.093323
   117  H    0.097219
   118  H    0.058793
   119  H    0.092165
   120  H    0.100394
   121  H    0.078795
   122  H    0.073512
   123  H    0.092356
   124  H    0.105133
   125  H    0.071242
   126  H    0.079954
   127  H    0.099436
   128  H    0.093024
   129  H    0.086624
   130  H    0.101526
   131  H    0.065401
   132  H    0.097145
   133  H    0.109129
   134  H    0.098633
   135  H    0.104895
   136  H    0.100628
   137  H    0.099326
 Sum of Mulliken charges =   0.00000

 Dipole moment (field-independent basis, Debye):
    X=              3.2296    Y=              5.7178    Z=             -0.4720  Tot=              6.5838
 Quadrupole moment (field-independent basis, Debye-Ang):
   XX=           -345.3193   YY=           -400.9639   ZZ=           -398.0215
   XY=            -30.2513   XZ=             13.7563   YZ=             -1.2605

 Normal termination of Gaussian 09 at Sun Jun 30 17:32:21 2019.
