 Gaussian 09, Revision D.01,
 Gaussian 09:  ES64L-G09RevD.01 24-Apr-2013

 -------------------------------------
 # td=(NStates=1) CAM-B3LYP/6-31G(d,p)
 -------------------------------------

 --
 TD
 --
 Symbolic Z-matrix:
 Charge =  0 Multiplicity = 1

                         Standard orientation:
 ---------------------------------------------------------------------
 Center     Atomic      Atomic             Coordinates (Angstroms)
 Number     Number       Type             X           Y           Z
 ---------------------------------------------------------------------
      1         12           0       -7.193905    0.652415    0.056400
      2          6           0       -4.876346   -1.929865    0.544124
      3          6           0       -4.784835    2.846630    1.199607
      4          6           0       -9.447491    3.078035   -0.335759
      5          6           0       -9.421314   -1.801790   -1.026296
      6          7           0       -5.115892    0.438601    0.713847
      7          6           0       -4.344786   -0.703010    0.805294
      8          6           0       -2.832288   -0.374294    1.248048
      9          6           0       -3.077508    1.063283    1.799232
     10          6           0       -4.419934    1.483478    1.257311
     11          6           0       -3.057010    1.180690    3.234692
     12          6           0       -1.884459   -0.462443    0.077289
     13          6           0       -0.479763   -0.344856    0.470616
     14          6           0        0.544930   -0.690332   -0.653054
     15          8           0        0.282366   -1.220546   -1.749070
     16          8           0        1.780136   -0.425984   -0.318985
     17          7           0       -7.118915    2.615004    0.365160
     18          6           0       -6.103360    3.384561    0.883067
     19          6           0       -6.482091    4.740556    0.871667
     20          6           0       -7.771361    4.818481    0.446195
     21          6           0       -8.156512    3.475111    0.160712
     22          6           0       -5.618665    5.894987    1.376423
     23          6           0       -8.677070    5.943988    0.455477
     24          6           0       -8.290210    7.214467    0.029401
     25          7           0       -9.104402    0.585347   -0.553124
     26          6           0       -9.863053    1.792927   -0.694452
     27          6           0      -11.233126    1.437558   -1.154970
     28          6           0      -11.277656    0.050745   -1.206487
     29          6           0       -9.905423   -0.387829   -0.839432
     30          6           0      -12.239282    2.346197   -1.335496
     31          6           0      -12.447618   -0.784943   -1.713992
     32          6           0      -12.355578   -1.027250   -3.250042
     33          7           0       -7.162049   -1.394286   -0.143039
     34          6           0       -8.223419   -2.201345   -0.569154
     35          6           0       -7.748412   -3.568811   -0.552726
     36          6           0       -6.427050   -3.506066   -0.100239
     37          6           0       -6.176527   -2.142464    0.015509
     38          6           0       -8.579720   -4.707713   -0.995185
     39          6           0       -5.308854   -4.299200    0.238852
     40          8           0       -5.158911   -5.580065    0.296595
     41          6           0       -4.141077   -3.237204    0.660733
     42          6           0       -3.410851   -3.640460    1.980763
     43          8           0       -3.769013   -3.171066    2.991684
     44          8           0       -2.657685   -4.708840    1.801696
     45          6           0       -2.007601   -5.174200    3.040031
     46          6           0        2.845644   -0.785898   -1.251382
     47          6           0        4.148205   -0.416539   -0.549535
     48          6           0        5.144274    0.364689   -1.012550
     49          6           0        5.151832    1.170361   -2.203440
     50          6           0        6.463904    0.343616   -0.259018
     51          6           0        7.622354   -0.295788   -1.013025
     52          6           0        8.829464   -0.191349   -0.129000
     53          6           0       10.158428   -0.610284   -0.892951
     54          6           0       10.004473   -1.971797   -1.401390
     55          6           0       11.373174   -0.285830   -0.017008
     56          6           0       12.720794   -0.493340   -0.641284
     57          6           0       13.933389   -0.189416    0.281835
     58          6           0       15.337487   -0.274877   -0.440943
     59          6           0       15.667236   -1.718179   -0.769960
     60          6           0       16.413107    0.385039    0.496304
     61          6           0       17.775289    0.483459   -0.128703
     62          6           0       18.850308    1.279486    0.787987
     63          6           0       20.291841    1.473114    0.109915
     64          6           0       20.234895    2.274576   -1.169301
     65          6           0       21.255257    2.005041    1.133856
     66          1           0       -4.108436    3.644370    1.381899
     67          1           0      -10.062278    3.919635   -0.544072
     68          1           0      -10.098020   -2.624490   -1.599239
     69          1           0       -2.513115   -1.030198    2.126292
     70          1           0       -2.133979    1.863054    1.658922
     71          1           0       -2.147418    0.660917    3.596093
     72          1           0       -3.177839    2.217301    3.533354
     73          1           0       -3.986412    0.686844    3.652697
     74          1           0       -1.860584   -1.399784   -0.432437
     75          1           0       -2.183934    0.242804   -0.803778
     76          1           0       -0.213225    0.643484    0.969813
     77          1           0       -0.386888   -1.093442    1.151054
     78          1           0       -4.985564    6.363301    0.696597
     79          1           0       -6.350151    6.596077    1.657236
     80          1           0       -4.822911    5.398168    2.177727
     81          1           0       -9.641978    5.701197    0.352743
     82          1           0       -9.075796    7.960934   -0.012852
     83          1           0       -7.224409    7.379915    0.043735
     84          1           0      -12.092615    2.712400   -2.517422
     85          1           0      -13.414859    2.008469   -1.173414
     86          1           0      -12.119439    3.454539   -0.591890
     87          1           0      -12.472059   -1.795255   -1.131998
     88          1           0      -13.204215   -0.113958   -1.627445
     89          1           0      -13.248360   -1.620270   -3.634503
     90          1           0      -12.394033   -0.177291   -3.921446
     91          1           0      -11.476944   -1.571335   -3.489865
     92          1           0       -9.147421   -4.538121   -1.991621
     93          1           0       -7.771697   -5.638599   -1.264109
     94          1           0       -9.349724   -5.126079   -0.440380
     95          1           0       -3.340831   -3.525558   -0.182934
     96          1           0       -1.630375   -4.286992    3.557253
     97          1           0       -2.720430   -5.805355    3.796472
     98          1           0       -1.301059   -5.956615    2.467852
     99          1           0        2.690811   -1.844259   -1.760068
    100          1           0        2.472643    0.041172   -2.021156
    101          1           0        4.400710   -0.892917    0.394895
    102          1           0        4.240228    1.267393   -2.752470
    103          1           0        5.203193    2.208624   -1.814852
    104          1           0        5.929442    1.141520   -3.112463
    105          1           0        6.768475    1.397150   -0.074071
    106          1           0        6.427301   -0.127094    0.729523
    107          1           0        7.388800   -1.317399   -1.274437
    108          1           0        7.579112    0.269882   -1.722024
    109          1           0        8.904544    0.933982    0.429470
    110          1           0        8.661290   -0.795708    0.703665
    111          1           0       10.016376    0.021168   -1.838014
    112          1           0        9.301254   -2.133214   -2.308448
    113          1           0       10.938925   -2.416933   -1.967846
    114          1           0        9.865820   -2.760544   -0.658707
    115          1           0       11.448819    0.911356    0.387026
    116          1           0       11.186749   -0.913028    0.926769
    117          1           0       12.704696   -1.381881   -1.155885
    118          1           0       12.766385    0.224653   -1.445750
    119          1           0       13.847437    0.906958    0.783670
    120          1           0       13.968903   -0.906019    1.136052
    121          1           0       15.284022    0.392070   -1.325821
    122          1           0       15.756773   -2.428651    0.213006
    123          1           0       14.992116   -2.014564   -1.564796
    124          1           0       16.522705   -1.773769   -1.287599
    125          1           0       15.863304    1.325725    0.624709
    126          1           0       16.421285   -0.098226    1.526173
    127          1           0       18.124633   -0.508443   -0.445493
    128          1           0       17.654923    1.122426   -1.033568
    129          1           0       18.316680    2.298451    0.999550
    130          1           0       19.226273    0.979024    1.841133
    131          1           0       20.515301    0.664555    0.092762
    132          1           0       19.981003    3.257637   -0.640962
    133          1           0       21.172069    2.105574   -1.678603
    134          1           0       19.445637    2.182334   -1.997878
    135          1           0       21.218262    1.723846    2.139218
    136          1           0       22.372322    2.209117    0.774640
    137          1           0       20.922110    3.006098    1.397259
 ---------------------------------------------------------------------

 SCF Done:  E(RCAM-B3LYP) =  -2932.56222096     A.U. after   18 cycles

 Excitation energies and oscillator strengths:

 Excited State   1:      Singlet-A      1.9378 eV  639.82 nm  f=0.2591  <S**2>=0.000
     240 -> 242       -0.10664
     240 -> 243       -0.18541
     241 -> 242        0.65776
     241 -> 243       -0.10854
 This state for optimization and/or second-order correction.
 Total Energy, E(TD-HF/TD-KS) =  -2932.49100873
 Copying the excited state density for this state as the 1-particle RhoCI density.

 The electronic state is 1-A.
 Alpha  occ. eigenvalues --  -46.84518 -19.26599 -19.26237 -19.20531 -19.19817
 Alpha  occ. eigenvalues --  -19.19729 -14.41397 -14.40482 -14.39663 -14.39016
 Alpha  occ. eigenvalues --  -10.38874 -10.38504 -10.35209 -10.33917 -10.33686
 Alpha  occ. eigenvalues --  -10.30786 -10.30611 -10.30266 -10.30230 -10.29616
 Alpha  occ. eigenvalues --  -10.29530 -10.29506 -10.29406 -10.28948 -10.28819
 Alpha  occ. eigenvalues --  -10.28666 -10.28514 -10.28490 -10.27737 -10.27692
 Alpha  occ. eigenvalues --  -10.27692 -10.27676 -10.27044 -10.26966 -10.26934
 Alpha  occ. eigenvalues --  -10.26738 -10.26714 -10.26574 -10.26542 -10.26511
 Alpha  occ. eigenvalues --  -10.26479 -10.26350 -10.26337 -10.26334 -10.26012
 Alpha  occ. eigenvalues --  -10.26002 -10.25995 -10.25993 -10.25990 -10.25944
 Alpha  occ. eigenvalues --  -10.25922 -10.25724 -10.25569 -10.25542 -10.25477
 Alpha  occ. eigenvalues --  -10.25462 -10.25385 -10.25081 -10.24904 -10.24789
 Alpha  occ. eigenvalues --  -10.24322 -10.24277 -10.24017 -10.23354 -10.22986
 Alpha  occ. eigenvalues --   -3.13627  -1.88329  -1.87879  -1.87803  -1.19328
 Alpha  occ. eigenvalues --   -1.18705  -1.10772  -1.07581  -1.06980  -1.06076
 Alpha  occ. eigenvalues --   -1.03990  -1.03400  -1.02574  -0.92410  -0.92400
 Alpha  occ. eigenvalues --   -0.90882  -0.90338  -0.89876  -0.89849  -0.89284
 Alpha  occ. eigenvalues --   -0.89197  -0.88734  -0.87884  -0.87735  -0.86303
 Alpha  occ. eigenvalues --   -0.85822  -0.84282  -0.83601  -0.83098  -0.82459
 Alpha  occ. eigenvalues --   -0.81930  -0.80746  -0.80617  -0.80350  -0.78472
 Alpha  occ. eigenvalues --   -0.77777  -0.76697  -0.76231  -0.75957  -0.75451
 Alpha  occ. eigenvalues --   -0.75345  -0.74690  -0.74090  -0.73121  -0.72689
 Alpha  occ. eigenvalues --   -0.71132  -0.70222  -0.70100  -0.68938  -0.68391
 Alpha  occ. eigenvalues --   -0.67510  -0.67271  -0.65985  -0.64844  -0.64250
 Alpha  occ. eigenvalues --   -0.64119  -0.63710  -0.63095  -0.62126  -0.62074
 Alpha  occ. eigenvalues --   -0.61771  -0.60777  -0.60389  -0.59958  -0.59832
 Alpha  occ. eigenvalues --   -0.59021  -0.58522  -0.57837  -0.57149  -0.56479
 Alpha  occ. eigenvalues --   -0.56034  -0.55668  -0.55252  -0.54874  -0.54696
 Alpha  occ. eigenvalues --   -0.54636  -0.54138  -0.53731  -0.53691  -0.53340
 Alpha  occ. eigenvalues --   -0.53254  -0.52907  -0.52811  -0.51856  -0.51650
 Alpha  occ. eigenvalues --   -0.51304  -0.51068  -0.50786  -0.50574  -0.50553
 Alpha  occ. eigenvalues --   -0.50344  -0.50210  -0.50040  -0.49617  -0.49370
 Alpha  occ. eigenvalues --   -0.49157  -0.48958  -0.48673  -0.48640  -0.48364
 Alpha  occ. eigenvalues --   -0.48034  -0.47868  -0.47605  -0.47401  -0.47060
 Alpha  occ. eigenvalues --   -0.46991  -0.46770  -0.46389  -0.46274  -0.46133
 Alpha  occ. eigenvalues --   -0.45581  -0.45346  -0.45253  -0.45201  -0.44886
 Alpha  occ. eigenvalues --   -0.44728  -0.44590  -0.44197  -0.44180  -0.43980
 Alpha  occ. eigenvalues --   -0.43952  -0.43533  -0.43479  -0.43282  -0.42952
 Alpha  occ. eigenvalues --   -0.42693  -0.42441  -0.42421  -0.42252  -0.42099
 Alpha  occ. eigenvalues --   -0.42053  -0.41631  -0.41493  -0.41212  -0.40948
 Alpha  occ. eigenvalues --   -0.40910  -0.40746  -0.40410  -0.40353  -0.40343
 Alpha  occ. eigenvalues --   -0.40235  -0.40068  -0.40008  -0.39649  -0.39294
 Alpha  occ. eigenvalues --   -0.38678  -0.38612  -0.38531  -0.38397  -0.37837
 Alpha  occ. eigenvalues --   -0.37574  -0.37211  -0.37053  -0.36934  -0.36764
 Alpha  occ. eigenvalues --   -0.36504  -0.36278  -0.36092  -0.36074  -0.35785
 Alpha  occ. eigenvalues --   -0.35403  -0.34981  -0.34511  -0.33624  -0.33185
 Alpha  occ. eigenvalues --   -0.33155  -0.32814  -0.32119  -0.30629  -0.30239
 Alpha  occ. eigenvalues --   -0.29735  -0.29437  -0.28252  -0.27071  -0.23451
 Alpha  occ. eigenvalues --   -0.20615
 Alpha virt. eigenvalues --   -0.06880  -0.03411   0.01315   0.03415   0.05456
 Alpha virt. eigenvalues --    0.05590   0.05835   0.06719   0.07144   0.07299
 Alpha virt. eigenvalues --    0.08539   0.09582   0.10177   0.10963   0.11365

 Mulliken charges:
               1
     1  Mg   0.840365
     2  C    0.062642
     3  C   -0.201390
     4  C   -0.155229
     5  C   -0.190101
     6  N   -0.626082
     7  C    0.264597
     8  C   -0.146869
     9  C   -0.139812
    10  C    0.351679
    11  C   -0.291257
    12  C   -0.160139
    13  C   -0.253211
    14  C    0.587421
    15  O   -0.509686
    16  O   -0.452282
    17  N   -0.720049
    18  C    0.290634
    19  C   -0.009411
    20  C    0.035037
    21  C    0.271814
    22  C   -0.361611
    23  C   -0.081406
    24  C   -0.235201
    25  N   -0.664506
    26  C    0.252016
    27  C    0.133428
    28  C   -0.022507
    29  C    0.269314
    30  C   -0.406298
    31  C   -0.208004
    32  C   -0.317761
    33  N   -0.700560
    34  C    0.303528
    35  C    0.037274
    36  C    0.070814
    37  C    0.323873
    38  C   -0.396195
    39  C    0.333483
    40  O   -0.504479
    41  C   -0.316664
    42  C    0.607483
    43  O   -0.444317
    44  O   -0.437437
    45  C   -0.086458
    46  C    0.001091
    47  C   -0.136687
    48  C    0.151409
    49  C   -0.389808
    50  C   -0.257544
    51  C   -0.136059
    52  C   -0.172842
    53  C   -0.051269
    54  C   -0.320846
    55  C   -0.150409
    56  C   -0.175001
    57  C   -0.166060
    58  C   -0.076845
    59  C   -0.295029
    60  C   -0.164445
    61  C   -0.177972
    62  C   -0.198749
    63  C    0.001250
    64  C   -0.300958
    65  C   -0.346417
    66  H    0.076578
    67  H    0.090159
    68  H    0.108802
    69  H    0.113221
    70  H    0.078514
    71  H    0.101563
    72  H    0.112634
    73  H    0.107653
    74  H    0.132798
    75  H    0.107385
    76  H    0.119074
    77  H    0.140714
    78  H    0.130685
    79  H    0.121333
    80  H    0.088003
    81  H    0.081548
    82  H    0.110341
    83  H    0.106025
    84  H    0.107531
    85  H    0.111123
    86  H    0.077158
    87  H    0.102764
    88  H    0.107866
    89  H    0.092921
    90  H    0.113124
    91  H    0.112149
    92  H    0.110751
    93  H    0.124003
    94  H    0.150624
    95  H    0.134540
    96  H    0.141009
    97  H    0.125584
    98  H    0.129258
    99  H    0.145296
   100  H    0.120608
   101  H    0.094107
   102  H    0.119474
   103  H    0.123490
   104  H    0.115323
   105  H    0.091303
   106  H    0.091766
   107  H    0.106239
   108  H    0.099660
   109  H    0.057426
   110  H    0.099399
   111  H    0.080059
   112  H    0.107282
   113  H    0.082935
   114  H    0.106366
   115  H    0.059588
   116  H    0.079345
   117  H    0.103383
   118  H    0.094544
   119  H    0.063795
   120  H    0.089214
   121  H    0.080999
   122  H    0.086169
   123  H    0.099169
   124  H    0.110132
   125  H    0.087549
   126  H    0.082042
   127  H    0.098734
   128  H    0.096415
   129  H    0.068537
   130  H    0.076486
   131  H    0.086966
   132  H    0.099364
   133  H    0.103909
   134  H    0.096305
   135  H    0.114019
   136  H    0.086674
   137  H    0.095204
 Sum of Mulliken charges =   0.00000

 Dipole moment (field-independent basis, Debye):
    X=              1.2920    Y=              3.2608    Z=             -0.9906  Tot=              3.6447
 Quadrupole moment (field-independent basis, Debye-Ang):
   XX=           -332.7492   YY=           -399.7052   ZZ=           -396.1167
   XY=            -23.7240   XZ=             12.2306   YZ=             -3.3216

 Normal termination of Gaussian 09 at Sun Jun 30 20:02:05 2019.
