 Gaussian 09, Revision D.01,
 Gaussian 09:  ES64L-G09RevD.01 24-Apr-2013

 -------------------------------------
 # td=(NStates=1) CAM-B3LYP/6-31G(d,p)
 -------------------------------------

 --
 TD
 --
 Symbolic Z-matrix:
 Charge =  0 Multiplicity = 1

                         Standard orientation:
 ---------------------------------------------------------------------
 Center     Atomic      Atomic             Coordinates (Angstroms)
 Number     Number       Type             X           Y           Z
 ---------------------------------------------------------------------
      1         12           0       -7.206992    0.568123    0.178895
      2          6           0       -4.882830   -1.911378    0.512428
      3          6           0       -4.828251    2.854041    1.323609
      4          6           0       -9.435507    3.066365   -0.412495
      5          6           0       -9.483848   -1.710964   -0.933401
      6          7           0       -5.119249    0.489276    0.740811
      7          6           0       -4.434962   -0.629517    0.791231
      8          6           0       -2.968899   -0.363333    1.288302
      9          6           0       -3.187664    1.152798    1.810405
     10          6           0       -4.471147    1.586800    1.272978
     11          6           0       -2.945120    1.422754    3.280149
     12          6           0       -2.051647   -0.474628    0.142672
     13          6           0       -0.562847   -0.353401    0.505824
     14          6           0        0.488421   -0.637492   -0.513513
     15          8           0        0.244146   -1.018966   -1.626260
     16          8           0        1.761031   -0.412540   -0.112063
     17          7           0       -7.128091    2.552126    0.514206
     18          6           0       -6.098069    3.335234    0.867519
     19          6           0       -6.459746    4.765952    0.825655
     20          6           0       -7.735044    4.833058    0.355797
     21          6           0       -8.253242    3.526992    0.058857
     22          6           0       -5.634119    5.884432    1.276966
     23          6           0       -8.621514    5.975806    0.289936
     24          6           0       -8.327877    7.266605    0.005123
     25          7           0       -9.127692    0.673472   -0.476564
     26          6           0       -9.893555    1.785116   -0.718438
     27          6           0      -11.214120    1.385886   -1.197749
     28          6           0      -11.192329   -0.040282   -1.266349
     29          6           0       -9.960846   -0.473148   -0.779200
     30          6           0      -12.249108    2.348958   -1.480195
     31          6           0      -12.310715   -0.923004   -1.845553
     32          6           0      -12.190681   -1.214531   -3.405843
     33          7           0       -7.246214   -1.464022   -0.032658
     34          6           0       -8.249477   -2.268780   -0.495606
     35          6           0       -7.698372   -3.674663   -0.554796
     36          6           0       -6.475881   -3.601393   -0.099823
     37          6           0       -6.161214   -2.151335    0.123225
     38          6           0       -8.569916   -4.949661   -0.849961
     39          6           0       -5.259162   -4.390504    0.279666
     40          8           0       -5.109249   -5.550309    0.275011
     41          6           0       -4.111858   -3.247950    0.625537
     42          6           0       -3.429448   -3.598626    1.807679
     43          8           0       -3.762349   -3.002984    2.857803
     44          8           0       -2.616804   -4.622896    1.665617
     45          6           0       -1.934932   -5.191342    2.865108
     46          6           0        2.773275   -0.596901   -1.171035
     47          6           0        4.090050   -0.319249   -0.541193
     48          6           0        5.065851    0.407343   -1.020581
     49          6           0        5.088494    1.081088   -2.383077
     50          6           0        6.436142    0.547214   -0.251098
     51          6           0        7.620171   -0.219712   -0.939949
     52          6           0        8.926134   -0.193443   -0.131927
     53          6           0       10.240535   -0.630200   -0.893601
     54          6           0       10.120190   -2.171495   -1.208125
     55          6           0       11.497710   -0.295016   -0.078213
     56          6           0       12.783774   -0.556231   -0.656017
     57          6           0       14.017148   -0.058368    0.238291
     58          6           0       15.349922   -0.206460   -0.468569
     59          6           0       15.721144   -1.683287   -0.832973
     60          6           0       16.516156    0.379119    0.482490
     61          6           0       17.822260    0.550809   -0.338929
     62          6           0       18.790002    1.201934    0.703465
     63          6           0       20.236717    1.400352    0.093795
     64          6           0       20.314232    2.238411   -1.111223
     65          6           0       21.162240    2.024721    1.176073
     66          1           0       -4.018378    3.583060    1.785026
     67          1           0      -10.170075    3.841960   -0.435660
     68          1           0      -10.254826   -2.364960   -1.088427
     69          1           0       -2.770654   -1.145214    2.091264
     70          1           0       -2.242375    1.607597    1.394493
     71          1           0       -1.980803    1.061627    3.630100
     72          1           0       -2.976911    2.439794    3.486725
     73          1           0       -3.869694    0.926210    3.808209
     74          1           0       -2.038244   -1.530108   -0.202361
     75          1           0       -2.353453    0.058323   -0.686683
     76          1           0       -0.197321    0.631387    1.046199
     77          1           0       -0.404651   -1.022032    1.446887
     78          1           0       -4.907832    6.110822    0.404180
     79          1           0       -6.173402    6.839712    1.542818
     80          1           0       -5.023936    5.549012    2.231723
     81          1           0       -9.727021    5.724406    0.184059
     82          1           0       -9.084631    8.003968   -0.269201
     83          1           0       -7.208355    7.438486   -0.302251
     84          1           0      -12.239870    2.937965   -2.674157
     85          1           0      -13.403279    1.945640   -1.339868
     86          1           0      -12.546821    3.245280   -0.717378
     87          1           0      -12.437152   -1.835339   -1.363378
     88          1           0      -13.172895   -0.162361   -1.706810
     89          1           0      -13.016014   -1.851213   -3.634210
     90          1           0      -12.413442   -0.328187   -4.084940
     91          1           0      -11.315623   -1.823617   -3.472647
     92          1           0       -8.788325   -5.012779   -1.818126
     93          1           0       -8.108357   -5.695514   -0.502980
     94          1           0       -9.559024   -4.938413   -0.260502
     95          1           0       -3.503360   -3.365249   -0.292021
     96          1           0       -1.284255   -4.457806    3.395312
     97          1           0       -2.740927   -5.259135    3.591388
     98          1           0       -1.629262   -6.115303    2.570322
     99          1           0        2.720478   -1.507508   -1.578520
    100          1           0        2.777019   -0.002146   -2.141573
    101          1           0        4.225394   -0.759447    0.562289
    102          1           0        4.139975    1.299435   -2.785025
    103          1           0        5.645295    2.002435   -2.294415
    104          1           0        5.735146    0.508773   -2.909986
    105          1           0        6.521972    1.654462   -0.081876
    106          1           0        6.253381    0.054815    0.791982
    107          1           0        7.274774   -1.413744   -0.986904
    108          1           0        7.964165    0.162946   -2.040711
    109          1           0        9.144079    0.858616    0.207657
    110          1           0        8.885965   -0.959016    0.540574
    111          1           0       10.322947    0.030255   -1.742978
    112          1           0        9.029228   -2.302879   -1.622622
    113          1           0       10.879064   -2.572855   -1.842280
    114          1           0       10.224884   -2.628604   -0.196258
    115          1           0       11.294962    0.780612    0.486403
    116          1           0       11.425149   -1.048592    0.706012
    117          1           0       12.774395   -1.640382   -0.782788
    118          1           0       12.816874   -0.021129   -1.775211
    119          1           0       13.776739    0.786503    0.692751
    120          1           0       13.725822   -0.752170    1.131964
    121          1           0       15.142275    0.166484   -1.259002
    122          1           0       15.650718   -2.348352    0.121767
    123          1           0       15.005949   -2.263892   -1.556273
    124          1           0       16.657905   -1.455115   -1.296299
    125          1           0       16.246272    1.558427    0.754235
    126          1           0       16.422801   -0.148870    1.514032
    127          1           0       18.113640   -0.449107   -0.743105
    128          1           0       17.438155    1.240510   -1.162157
    129          1           0       18.388215    2.161770    1.048787
    130          1           0       19.018504    0.629460    1.645492
    131          1           0       20.569524    0.362562   -0.032490
    132          1           0       20.031929    3.044214   -0.668725
    133          1           0       21.247562    2.124268   -1.325150
    134          1           0       19.899241    2.067365   -2.090305
    135          1           0       21.091457    1.323925    2.157596
    136          1           0       22.328791    1.976141    0.829444
    137          1           0       20.789242    3.016977    1.578307
 ---------------------------------------------------------------------

 SCF Done:  E(RCAM-B3LYP) =  -2932.59703489     A.U. after   17 cycles

 Excitation energies and oscillator strengths:

 Excited State   1:      Singlet-A      2.1411 eV  579.08 nm  f=0.2771  <S**2>=0.000
     240 -> 243        0.21969
     241 -> 242        0.65352
     241 -> 243        0.10003
 This state for optimization and/or second-order correction.
 Total Energy, E(TD-HF/TD-KS) =  -2932.51835195
 Copying the excited state density for this state as the 1-particle RhoCI density.

 The electronic state is 1-A.
 Alpha  occ. eigenvalues --  -46.83485 -19.27341 -19.26186 -19.22192 -19.20263
 Alpha  occ. eigenvalues --  -19.19580 -14.40808 -14.39884 -14.39093 -14.38490
 Alpha  occ. eigenvalues --  -10.38789 -10.38675 -10.36391 -10.32009 -10.31071
 Alpha  occ. eigenvalues --  -10.30640 -10.30313 -10.29767 -10.29605 -10.29504
 Alpha  occ. eigenvalues --  -10.29210 -10.28803 -10.28790 -10.28454 -10.28415
 Alpha  occ. eigenvalues --  -10.28372 -10.28056 -10.27768 -10.27730 -10.27598
 Alpha  occ. eigenvalues --  -10.27321 -10.27164 -10.27161 -10.27078 -10.27060
 Alpha  occ. eigenvalues --  -10.26950 -10.26860 -10.26839 -10.26757 -10.26588
 Alpha  occ. eigenvalues --  -10.26551 -10.26456 -10.26180 -10.26117 -10.26011
 Alpha  occ. eigenvalues --  -10.25969 -10.25969 -10.25872 -10.25824 -10.25768
 Alpha  occ. eigenvalues --  -10.25710 -10.25670 -10.25514 -10.25478 -10.25475
 Alpha  occ. eigenvalues --  -10.25273 -10.25180 -10.25137 -10.25023 -10.24835
 Alpha  occ. eigenvalues --  -10.24464 -10.24368 -10.24334 -10.24238 -10.20903
 Alpha  occ. eigenvalues --   -3.12578  -1.87289  -1.86816  -1.86755  -1.18110
 Alpha  occ. eigenvalues --   -1.17868  -1.14909  -1.08710  -1.07607  -1.05135
 Alpha  occ. eigenvalues --   -1.03897  -1.01338  -1.00374  -0.92114  -0.91043
 Alpha  occ. eigenvalues --   -0.90495  -0.89997  -0.89938  -0.89755  -0.88962
 Alpha  occ. eigenvalues --   -0.88642  -0.88351  -0.87320  -0.86632  -0.85871
 Alpha  occ. eigenvalues --   -0.85439  -0.84405  -0.83747  -0.83157  -0.82571
 Alpha  occ. eigenvalues --   -0.82092  -0.81981  -0.80384  -0.79958  -0.79023
 Alpha  occ. eigenvalues --   -0.78351  -0.77950  -0.76405  -0.76276  -0.76074
 Alpha  occ. eigenvalues --   -0.74967  -0.74475  -0.73340  -0.72645  -0.72210
 Alpha  occ. eigenvalues --   -0.71426  -0.70375  -0.69540  -0.68980  -0.68591
 Alpha  occ. eigenvalues --   -0.67131  -0.66011  -0.65382  -0.64823  -0.64718
 Alpha  occ. eigenvalues --   -0.64110  -0.63425  -0.63193  -0.62557  -0.62511
 Alpha  occ. eigenvalues --   -0.61949  -0.60280  -0.60045  -0.59180  -0.58599
 Alpha  occ. eigenvalues --   -0.58419  -0.57992  -0.57755  -0.56903  -0.56288
 Alpha  occ. eigenvalues --   -0.55813  -0.55751  -0.55319  -0.55097  -0.54822
 Alpha  occ. eigenvalues --   -0.54681  -0.54524  -0.54156  -0.53592  -0.53449
 Alpha  occ. eigenvalues --   -0.53090  -0.52926  -0.52388  -0.52005  -0.51771
 Alpha  occ. eigenvalues --   -0.51563  -0.51302  -0.51206  -0.50903  -0.50578
 Alpha  occ. eigenvalues --   -0.50461  -0.50279  -0.50189  -0.50028  -0.49617
 Alpha  occ. eigenvalues --   -0.49289  -0.49096  -0.48851  -0.48824  -0.48528
 Alpha  occ. eigenvalues --   -0.48346  -0.47926  -0.47812  -0.47413  -0.47168
 Alpha  occ. eigenvalues --   -0.47007  -0.46892  -0.46726  -0.46453  -0.46196
 Alpha  occ. eigenvalues --   -0.45985  -0.45558  -0.45454  -0.45199  -0.44991
 Alpha  occ. eigenvalues --   -0.44851  -0.44712  -0.44568  -0.44505  -0.44186
 Alpha  occ. eigenvalues --   -0.43895  -0.43600  -0.43437  -0.43391  -0.42859
 Alpha  occ. eigenvalues --   -0.42775  -0.42602  -0.42323  -0.42235  -0.42214
 Alpha  occ. eigenvalues --   -0.41779  -0.41707  -0.41663  -0.41216  -0.41087
 Alpha  occ. eigenvalues --   -0.40902  -0.40814  -0.40549  -0.40296  -0.39975
 Alpha  occ. eigenvalues --   -0.39806  -0.39755  -0.39443  -0.39151  -0.39052
 Alpha  occ. eigenvalues --   -0.39008  -0.38858  -0.37812  -0.37610  -0.37477
 Alpha  occ. eigenvalues --   -0.37293  -0.37238  -0.36698  -0.36647  -0.36336
 Alpha  occ. eigenvalues --   -0.36225  -0.36135  -0.35800  -0.35751  -0.35389
 Alpha  occ. eigenvalues --   -0.35359  -0.34665  -0.34395  -0.33389  -0.32906
 Alpha  occ. eigenvalues --   -0.32457  -0.32216  -0.31887  -0.31631  -0.30847
 Alpha  occ. eigenvalues --   -0.30172  -0.30027  -0.27528  -0.26681  -0.24034
 Alpha  occ. eigenvalues --   -0.20462
 Alpha virt. eigenvalues --   -0.05517  -0.03092   0.02213   0.04052   0.05405
 Alpha virt. eigenvalues --    0.06236   0.06522   0.06838   0.07210   0.08149
 Alpha virt. eigenvalues --    0.08775   0.10788   0.11249   0.11646   0.11865

 Mulliken charges:
               1
     1  Mg   0.806874
     2  C    0.107726
     3  C   -0.207429
     4  C   -0.172884
     5  C   -0.139907
     6  N   -0.678000
     7  C    0.309517
     8  C   -0.174490
     9  C   -0.181917
    10  C    0.407272
    11  C   -0.294475
    12  C   -0.155353
    13  C   -0.285453
    14  C    0.626940
    15  O   -0.473599
    16  O   -0.490694
    17  N   -0.690660
    18  C    0.336455
    19  C    0.030450
    20  C    0.060186
    21  C    0.234153
    22  C   -0.384682
    23  C   -0.081142
    24  C   -0.255361
    25  N   -0.699984
    26  C    0.301186
    27  C    0.075568
    28  C    0.024643
    29  C    0.254329
    30  C   -0.392694
    31  C   -0.241726
    32  C   -0.310094
    33  N   -0.715902
    34  C    0.229616
    35  C   -0.073360
    36  C    0.037858
    37  C    0.307373
    38  C   -0.336419
    39  C    0.374362
    40  O   -0.403149
    41  C   -0.331308
    42  C    0.647882
    43  O   -0.520094
    44  O   -0.464710
    45  C   -0.091627
    46  C    0.025105
    47  C   -0.139066
    48  C    0.095540
    49  C   -0.360599
    50  C   -0.217684
    51  C   -0.167812
    52  C   -0.157931
    53  C   -0.078257
    54  C   -0.321914
    55  C   -0.158424
    56  C   -0.172704
    57  C   -0.170232
    58  C   -0.030780
    59  C   -0.307645
    60  C   -0.173145
    61  C   -0.178464
    62  C   -0.172090
    63  C   -0.089394
    64  C   -0.265594
    65  C   -0.305979
    66  H    0.095245
    67  H    0.089420
    68  H    0.078307
    69  H    0.129805
    70  H    0.098260
    71  H    0.108121
    72  H    0.111242
    73  H    0.104466
    74  H    0.119731
    75  H    0.128190
    76  H    0.117656
    77  H    0.126255
    78  H    0.119883
    79  H    0.129178
    80  H    0.104424
    81  H    0.090452
    82  H    0.114767
    83  H    0.098698
    84  H    0.078366
    85  H    0.091498
    86  H    0.104526
    87  H    0.112551
    88  H    0.095506
    89  H    0.107712
    90  H    0.112491
    91  H    0.117640
    92  H    0.134357
    93  H    0.142587
    94  H    0.108336
    95  H    0.162603
    96  H    0.138782
    97  H    0.148059
    98  H    0.146987
    99  H    0.142254
   100  H    0.106158
   101  H    0.075471
   102  H    0.120012
   103  H    0.108870
   104  H    0.140729
   105  H    0.103611
   106  H    0.093096
   107  H    0.079401
   108  H    0.078359
   109  H    0.089725
   110  H    0.103423
   111  H    0.080326
   112  H    0.097165
   113  H    0.115709
   114  H    0.099189
   115  H    0.056640
   116  H    0.081510
   117  H    0.100593
   118  H    0.042550
   119  H    0.101936
   120  H    0.061032
   121  H    0.089090
   122  H    0.093923
   123  H    0.089894
   124  H    0.102897
   125  H    0.058196
   126  H    0.095741
   127  H    0.104328
   128  H    0.106885
   129  H    0.087401
   130  H    0.091385
   131  H    0.083194
   132  H    0.105570
   133  H    0.108700
   134  H    0.093280
   135  H    0.077287
   136  H    0.086614
   137  H    0.103547
 Sum of Mulliken charges =   0.00000

 Dipole moment (field-independent basis, Debye):
    X=              2.6290    Y=              2.4769    Z=              0.3020  Tot=              3.6246
 Quadrupole moment (field-independent basis, Debye-Ang):
   XX=           -350.3638   YY=           -380.5997   ZZ=           -398.1390
   XY=            -12.9914   XZ=              8.9368   YZ=             -5.2898

 Normal termination of Gaussian 09 at Sun Jun 30 10:47:06 2019.
