 Gaussian 09, Revision D.01,
 Gaussian 09:  ES64L-G09RevD.01 24-Apr-2013

 -------------------------------------
 # td=(NStates=1) CAM-B3LYP/6-31G(d,p)
 -------------------------------------

 --
 TD
 --
 Symbolic Z-matrix:
 Charge =  0 Multiplicity = 1

                         Standard orientation:
 ---------------------------------------------------------------------
 Center     Atomic      Atomic             Coordinates (Angstroms)
 Number     Number       Type             X           Y           Z
 ---------------------------------------------------------------------
      1         12           0       -7.112791    0.545942    0.100539
      2          6           0       -4.904980   -1.969516    0.541480
      3          6           0       -4.799639    2.786810    1.112549
      4          6           0       -9.344568    3.109549   -0.256143
      5          6           0       -9.512254   -1.700413   -0.977067
      6          7           0       -5.090012    0.357223    0.738070
      7          6           0       -4.352011   -0.737052    0.791846
      8          6           0       -2.953825   -0.450264    1.243961
      9          6           0       -3.087116    1.039638    1.705483
     10          6           0       -4.407215    1.538030    1.194768
     11          6           0       -2.974321    1.155679    3.225390
     12          6           0       -2.007582   -0.697285    0.138554
     13          6           0       -0.457955   -0.519741    0.526430
     14          6           0        0.465257   -0.744511   -0.670646
     15          8           0        0.187245   -1.024605   -1.747213
     16          8           0        1.719126   -0.393241   -0.364275
     17          7           0       -7.071402    2.554090    0.324767
     18          6           0       -6.058147    3.302501    0.754070
     19          6           0       -6.327035    4.764174    0.949172
     20          6           0       -7.658753    4.874684    0.441013
     21          6           0       -8.115579    3.498719    0.080021
     22          6           0       -5.381480    5.787864    1.372183
     23          6           0       -8.503314    6.057861    0.386841
     24          6           0       -8.094571    7.324826    0.219566
     25          7           0       -9.027271    0.721692   -0.593645
     26          6           0       -9.820443    1.831820   -0.574589
     27          6           0      -11.190292    1.526966   -1.050663
     28          6           0      -11.232655    0.149345   -1.198085
     29          6           0       -9.870835   -0.358801   -0.940438
     30          6           0      -12.180103    2.604631   -1.354913
     31          6           0      -12.331331   -0.758094   -1.757939
     32          6           0      -12.316525   -0.873707   -3.224376
     33          7           0       -7.250261   -1.468082   -0.165015
     34          6           0       -8.302534   -2.242475   -0.584126
     35          6           0       -7.814018   -3.667900   -0.589743
     36          6           0       -6.527853   -3.679946   -0.120798
     37          6           0       -6.189123   -2.290430    0.063221
     38          6           0       -8.780792   -4.848851   -0.776072
     39          6           0       -5.427742   -4.462704    0.189028
     40          8           0       -5.163929   -5.643803    0.199000
     41          6           0       -4.243887   -3.313008    0.543264
     42          6           0       -3.624371   -3.695684    1.925300
     43          8           0       -3.693834   -3.178966    3.019240
     44          8           0       -2.651036   -4.682670    1.730561
     45          6           0       -2.082604   -5.091409    2.932313
     46          6           0        2.706895   -0.707748   -1.262459
     47          6           0        3.994809   -0.433527   -0.590246
     48          6           0        5.068903    0.349776   -0.973841
     49          6           0        5.066360    1.240020   -2.156437
     50          6           0        6.305076    0.458346   -0.144740
     51          6           0        7.627893    0.028532   -1.039698
     52          6           0        8.988814    0.000335   -0.168572
     53          6           0       10.237242   -0.402264   -0.936148
     54          6           0       10.050593   -2.025002   -1.400455
     55          6           0       11.394622   -0.234079   -0.027018
     56          6           0       12.760286   -0.524230   -0.825785
     57          6           0       13.922348   -0.128906    0.157796
     58          6           0       15.396950   -0.197714   -0.475028
     59          6           0       15.634230   -1.637304   -0.910016
     60          6           0       16.414244    0.319239    0.387196
     61          6           0       17.895755    0.475603   -0.147625
     62          6           0       18.720296    1.299127    0.767742
     63          6           0       20.212444    1.304751    0.244278
     64          6           0       20.419246    2.092749   -1.015999
     65          6           0       21.118116    1.907277    1.420682
     66          1           0       -4.171174    3.539337    1.511424
     67          1           0      -10.133654    3.962941   -0.415250
     68          1           0      -10.542183   -2.455323   -1.151380
     69          1           0       -2.892526   -1.263181    2.116492
     70          1           0       -2.370134    1.854712    1.345406
     71          1           0       -1.913831    0.889392    3.528138
     72          1           0       -3.437796    2.256568    3.384559
     73          1           0       -3.771107    0.717832    3.865884
     74          1           0       -1.983452   -1.721293   -0.321664
     75          1           0       -2.203226    0.003469   -0.682308
     76          1           0       -0.217516    0.481222    1.037131
     77          1           0       -0.188191   -1.296396    1.392470
     78          1           0       -4.974201    6.238554    0.318568
     79          1           0       -5.986119    6.644061    1.814439
     80          1           0       -4.505627    5.494536    2.139986
     81          1           0       -9.526497    5.820924    0.725080
     82          1           0       -8.640856    8.244509    0.406429
     83          1           0       -7.171813    7.498189   -0.000104
     84          1           0      -11.881607    3.377856   -2.248479
     85          1           0      -13.178736    2.399820   -1.750704
     86          1           0      -12.449062    3.204107   -0.524581
     87          1           0      -12.284744   -1.585008   -1.242033
     88          1           0      -13.309908   -0.212872   -1.415932
     89          1           0      -13.087071   -1.501427   -3.809565
     90          1           0      -12.287607    0.126098   -3.763087
     91          1           0      -11.463559   -1.447647   -3.488593
     92          1           0       -9.377949   -4.755386   -1.666607
     93          1           0       -8.350907   -5.801325   -0.750933
     94          1           0       -9.435073   -5.007091   -0.021777
     95          1           0       -3.465906   -3.564129   -0.313365
     96          1           0       -1.374120   -4.297467    3.473066
     97          1           0       -2.834109   -5.237050    3.657679
     98          1           0       -1.520069   -5.994851    2.559568
     99          1           0        2.775261   -1.896612   -1.515453
    100          1           0        2.637812   -0.141015   -2.233239
    101          1           0        4.132371   -0.819653    0.405408
    102          1           0        4.040554    1.465045   -2.826448
    103          1           0        5.549877    2.104338   -2.010420
    104          1           0        5.690860    0.909774   -2.941874
    105          1           0        6.507631    1.445623    0.002989
    106          1           0        6.326747   -0.271237    0.723195
    107          1           0        7.482352   -1.091456   -1.458595
    108          1           0        7.866372    0.650565   -1.995174
    109          1           0        9.105724    0.947640    0.231173
    110          1           0        8.680030   -0.407925    0.726005
    111          1           0       10.192591    0.158986   -1.875895
    112          1           0        9.115171   -2.006342   -1.986933
    113          1           0       10.888316   -2.322079   -2.042610
    114          1           0        9.865946   -2.550148   -0.380049
    115          1           0       11.508714    0.610391    0.308102
    116          1           0       11.356720   -0.935757    0.884961
    117          1           0       12.819033   -1.441498   -1.142679
    118          1           0       12.836102    0.061442   -1.857954
    119          1           0       13.933144    0.894688    0.688707
    120          1           0       13.917801   -0.649993    1.106840
    121          1           0       15.145226    0.513914   -1.524738
    122          1           0       15.867314   -2.481256   -0.082246
    123          1           0       14.547453   -1.933669   -1.339471
    124          1           0       16.460117   -1.803676   -1.426464
    125          1           0       16.101303    1.369272    0.696772
    126          1           0       16.484785   -0.353205    1.340260
    127          1           0       18.316011   -0.600014   -0.163863
    128          1           0       17.752031    0.922012   -0.978664
    129          1           0       18.290566    2.338733    1.213681
    130          1           0       18.699942    0.768908    1.944745
    131          1           0       20.610625    0.285545   -0.018732
    132          1           0       20.039573    3.038382   -1.146114
    133          1           0       21.495199    1.990416   -1.303905
    134          1           0       19.864442    1.472379   -1.770197
    135          1           0       21.272568    1.297664    2.250390
    136          1           0       22.211800    2.060421    0.900509
    137          1           0       20.638201    2.848510    1.866923
 ---------------------------------------------------------------------

 SCF Done:  E(RCAM-B3LYP) =  -2932.61222852     A.U. after   15 cycles

 Excitation energies and oscillator strengths:

 Excited State   1:      Singlet-A      2.0301 eV  610.72 nm  f=0.3158  <S**2>=0.000
     240 -> 243       -0.21746
     241 -> 242        0.66241
 This state for optimization and/or second-order correction.
 Total Energy, E(TD-HF/TD-KS) =  -2932.53762262
 Copying the excited state density for this state as the 1-particle RhoCI density.

 The electronic state is 1-A.
 Alpha  occ. eigenvalues --  -46.84247 -19.25240 -19.24670 -19.21430 -19.21012
 Alpha  occ. eigenvalues --  -19.20760 -14.41006 -14.40635 -14.40005 -14.39490
 Alpha  occ. eigenvalues --  -10.39030 -10.38466 -10.35274 -10.32154 -10.30861
 Alpha  occ. eigenvalues --  -10.30552 -10.30440 -10.30066 -10.29828 -10.29800
 Alpha  occ. eigenvalues --  -10.29661 -10.29633 -10.29504 -10.29378 -10.29275
 Alpha  occ. eigenvalues --  -10.29088 -10.28893 -10.28862 -10.28703 -10.28615
 Alpha  occ. eigenvalues --  -10.28194 -10.28086 -10.27879 -10.27687 -10.27647
 Alpha  occ. eigenvalues --  -10.27645 -10.27172 -10.27140 -10.27092 -10.27075
 Alpha  occ. eigenvalues --  -10.26999 -10.26937 -10.26814 -10.26726 -10.26569
 Alpha  occ. eigenvalues --  -10.26458 -10.25970 -10.25795 -10.25794 -10.25714
 Alpha  occ. eigenvalues --  -10.25647 -10.25599 -10.25583 -10.25360 -10.25242
 Alpha  occ. eigenvalues --  -10.25217 -10.25138 -10.25137 -10.24976 -10.24786
 Alpha  occ. eigenvalues --  -10.24784 -10.24415 -10.24135 -10.23938 -10.23854
 Alpha  occ. eigenvalues --   -3.13341  -1.88049  -1.87563  -1.87538  -1.21042
 Alpha  occ. eigenvalues --   -1.17428  -1.11894  -1.11442  -1.08687  -1.04462
 Alpha  occ. eigenvalues --   -1.03664  -1.03105  -1.01699  -0.92575  -0.90701
 Alpha  occ. eigenvalues --   -0.90329  -0.90232  -0.89820  -0.89463  -0.89243
 Alpha  occ. eigenvalues --   -0.88929  -0.87990  -0.87721  -0.87090  -0.85769
 Alpha  occ. eigenvalues --   -0.85062  -0.84116  -0.83798  -0.83628  -0.82720
 Alpha  occ. eigenvalues --   -0.81737  -0.81231  -0.80012  -0.79219  -0.78849
 Alpha  occ. eigenvalues --   -0.78299  -0.77217  -0.76018  -0.75508  -0.75398
 Alpha  occ. eigenvalues --   -0.74861  -0.74561  -0.74517  -0.73318  -0.72811
 Alpha  occ. eigenvalues --   -0.71437  -0.70336  -0.70020  -0.69624  -0.69027
 Alpha  occ. eigenvalues --   -0.68516  -0.66342  -0.65994  -0.65817  -0.64873
 Alpha  occ. eigenvalues --   -0.64257  -0.63308  -0.62736  -0.62485  -0.61656
 Alpha  occ. eigenvalues --   -0.60779  -0.60730  -0.60357  -0.60026  -0.59423
 Alpha  occ. eigenvalues --   -0.58643  -0.58161  -0.57672  -0.56981  -0.56752
 Alpha  occ. eigenvalues --   -0.56243  -0.55636  -0.55357  -0.54816  -0.54631
 Alpha  occ. eigenvalues --   -0.54411  -0.54141  -0.53569  -0.53222  -0.52924
 Alpha  occ. eigenvalues --   -0.52667  -0.52573  -0.52376  -0.51938  -0.51698
 Alpha  occ. eigenvalues --   -0.51487  -0.51162  -0.50978  -0.50811  -0.50736
 Alpha  occ. eigenvalues --   -0.50624  -0.50150  -0.50139  -0.49930  -0.49559
 Alpha  occ. eigenvalues --   -0.49343  -0.49097  -0.48960  -0.48677  -0.48442
 Alpha  occ. eigenvalues --   -0.48311  -0.47815  -0.47652  -0.47308  -0.46978
 Alpha  occ. eigenvalues --   -0.46877  -0.46807  -0.46407  -0.46387  -0.46188
 Alpha  occ. eigenvalues --   -0.46018  -0.45813  -0.45550  -0.45347  -0.45160
 Alpha  occ. eigenvalues --   -0.44987  -0.44674  -0.44652  -0.44203  -0.43993
 Alpha  occ. eigenvalues --   -0.43841  -0.43718  -0.43523  -0.43493  -0.43116
 Alpha  occ. eigenvalues --   -0.42810  -0.42652  -0.42567  -0.42401  -0.42264
 Alpha  occ. eigenvalues --   -0.42050  -0.41926  -0.41675  -0.41538  -0.41411
 Alpha  occ. eigenvalues --   -0.41262  -0.40875  -0.40797  -0.40610  -0.40284
 Alpha  occ. eigenvalues --   -0.40054  -0.39910  -0.39808  -0.39727  -0.39424
 Alpha  occ. eigenvalues --   -0.39012  -0.38693  -0.38346  -0.37962  -0.37880
 Alpha  occ. eigenvalues --   -0.37686  -0.37560  -0.37392  -0.36482  -0.36271
 Alpha  occ. eigenvalues --   -0.35852  -0.35718  -0.35484  -0.35408  -0.35179
 Alpha  occ. eigenvalues --   -0.34767  -0.34581  -0.34508  -0.34143  -0.33709
 Alpha  occ. eigenvalues --   -0.33416  -0.32807  -0.32262  -0.31318  -0.30497
 Alpha  occ. eigenvalues --   -0.29879  -0.28819  -0.28133  -0.27904  -0.24008
 Alpha  occ. eigenvalues --   -0.21024
 Alpha virt. eigenvalues --   -0.06657  -0.03325   0.01295   0.03568   0.05227
 Alpha virt. eigenvalues --    0.05886   0.06364   0.06562   0.06935   0.07499
 Alpha virt. eigenvalues --    0.08324   0.10163   0.10811   0.11114   0.11468

 Mulliken charges:
               1
     1  Mg   0.810596
     2  C    0.095973
     3  C   -0.183702
     4  C   -0.207848
     5  C   -0.182777
     6  N   -0.667402
     7  C    0.341082
     8  C   -0.163376
     9  C   -0.163073
    10  C    0.350097
    11  C   -0.293643
    12  C   -0.164574
    13  C   -0.288551
    14  C    0.600540
    15  O   -0.421972
    16  O   -0.446390
    17  N   -0.699096
    18  C    0.326076
    19  C    0.062464
    20  C   -0.012062
    21  C    0.319377
    22  C   -0.387886
    23  C   -0.083356
    24  C   -0.235271
    25  N   -0.685090
    26  C    0.287974
    27  C    0.062411
    28  C   -0.029503
    29  C    0.296107
    30  C   -0.394122
    31  C   -0.203336
    32  C   -0.300724
    33  N   -0.719078
    34  C    0.291722
    35  C   -0.033298
    36  C    0.136010
    37  C    0.234841
    38  C   -0.377018
    39  C    0.312100
    40  O   -0.447323
    41  C   -0.368738
    42  C    0.620163
    43  O   -0.471501
    44  O   -0.451196
    45  C   -0.068363
    46  C    0.028235
    47  C   -0.150645
    48  C    0.150260
    49  C   -0.374200
    50  C   -0.235737
    51  C   -0.208152
    52  C   -0.180012
    53  C   -0.072590
    54  C   -0.317651
    55  C   -0.139196
    56  C   -0.192889
    57  C   -0.189837
    58  C   -0.029533
    59  C   -0.285362
    60  C   -0.183399
    61  C   -0.154095
    62  C   -0.159078
    63  C   -0.052568
    64  C   -0.301445
    65  C   -0.300276
    66  H    0.069495
    67  H    0.095026
    68  H    0.087863
    69  H    0.140168
    70  H    0.107642
    71  H    0.115227
    72  H    0.073151
    73  H    0.128110
    74  H    0.126630
    75  H    0.120826
    76  H    0.128388
    77  H    0.120594
    78  H    0.122797
    79  H    0.129181
    80  H    0.117389
    81  H    0.101389
    82  H    0.111265
    83  H    0.097526
    84  H    0.100700
    85  H    0.119796
    86  H    0.128094
    87  H    0.109756
    88  H    0.088817
    89  H    0.092544
    90  H    0.108631
    91  H    0.114786
    92  H    0.120089
    93  H    0.139994
    94  H    0.142662
    95  H    0.156787
    96  H    0.086420
    97  H    0.132814
    98  H    0.114905
    99  H    0.096596
   100  H    0.108981
   101  H    0.080615
   102  H    0.087334
   103  H    0.120280
   104  H    0.127817
   105  H    0.120890
   106  H    0.105581
   107  H    0.081970
   108  H    0.080276
   109  H    0.090704
   110  H    0.093495
   111  H    0.090229
   112  H    0.103583
   113  H    0.105667
   114  H    0.098972
   115  H    0.104765
   116  H    0.086252
   117  H    0.123169
   118  H    0.074100
   119  H    0.072910
   120  H    0.094177
   121  H    0.039309
   122  H    0.068307
   123  H    0.078333
   124  H    0.114022
   125  H    0.075679
   126  H    0.079958
   127  H    0.094343
   128  H    0.113875
   129  H    0.085057
   130  H    0.041044
   131  H    0.089561
   132  H    0.114471
   133  H    0.098088
   134  H    0.091563
   135  H    0.111844
   136  H    0.065654
   137  H    0.091975
 Sum of Mulliken charges =   0.00000

 Dipole moment (field-independent basis, Debye):
    X=             -0.6808    Y=              6.1350    Z=              0.6060  Tot=              6.2023
 Quadrupole moment (field-independent basis, Debye-Ang):
   XX=           -343.5928   YY=           -390.3380   ZZ=           -399.9678
   XY=            -26.2440   XZ=              4.4111   YZ=              2.4101

 Normal termination of Gaussian 09 at Wed Jun 26 23:06:57 2019.
