 Gaussian 09, Revision D.01,
 Gaussian 09:  ES64L-G09RevD.01 24-Apr-2013

 -------------------------------------
 # td=(NStates=1) CAM-B3LYP/6-31G(d,p)
 -------------------------------------

 --
 TD
 --
 Symbolic Z-matrix:
 Charge =  0 Multiplicity = 1

                         Standard orientation:
 ---------------------------------------------------------------------
 Center     Atomic      Atomic             Coordinates (Angstroms)
 Number     Number       Type             X           Y           Z
 ---------------------------------------------------------------------
      1         12           0       -7.158858    0.626975    0.166083
      2          6           0       -4.799110   -2.021458    0.484528
      3          6           0       -4.805289    2.810538    1.265665
      4          6           0       -9.351306    3.117704   -0.432508
      5          6           0       -9.544442   -1.690360   -0.734753
      6          7           0       -5.099586    0.389028    0.753564
      7          6           0       -4.347296   -0.685319    0.804536
      8          6           0       -2.885394   -0.384336    1.253705
      9          6           0       -3.064696    1.106063    1.712689
     10          6           0       -4.443101    1.498962    1.137038
     11          6           0       -2.896561    1.273060    3.171187
     12          6           0       -1.924160   -0.623972    0.157045
     13          6           0       -0.407841   -0.356318    0.612485
     14          6           0        0.489022   -0.655366   -0.593955
     15          8           0        0.090748   -1.077429   -1.701089
     16          8           0        1.818896   -0.384987   -0.253176
     17          7           0       -7.105902    2.610065    0.404513
     18          6           0       -6.076833    3.347824    0.788745
     19          6           0       -6.476208    4.651266    0.954827
     20          6           0       -7.763471    4.831766    0.451083
     21          6           0       -8.165261    3.494761    0.121511
     22          6           0       -5.481270    5.823371    1.361871
     23          6           0       -8.550624    6.064535    0.334659
     24          6           0       -8.102814    7.256292   -0.051448
     25          7           0       -9.073324    0.695831   -0.421048
     26          6           0       -9.799246    1.924680   -0.591974
     27          6           0      -11.171005    1.480012   -1.195559
     28          6           0      -11.248806    0.187261   -1.190648
     29          6           0       -9.892546   -0.306112   -0.856810
     30          6           0      -12.280737    2.528648   -1.495673
     31          6           0      -12.415052   -0.733851   -1.689739
     32          6           0      -12.197927   -1.023970   -3.263026
     33          7           0       -7.264867   -1.465674   -0.082209
     34          6           0       -8.331051   -2.271371   -0.559918
     35          6           0       -7.812304   -3.682736   -0.529499
     36          6           0       -6.506989   -3.634503   -0.111523
     37          6           0       -6.122086   -2.185842    0.137724
     38          6           0       -8.663989   -4.881861   -0.881001
     39          6           0       -5.250957   -4.349790    0.188084
     40          8           0       -5.182978   -5.631921    0.174287
     41          6           0       -4.113087   -3.336974    0.411491
     42          6           0       -3.448502   -3.688712    1.787832
     43          8           0       -3.745632   -3.195347    2.866005
     44          8           0       -2.536430   -4.663667    1.644217
     45          6           0       -1.992463   -5.064648    2.905570
     46          6           0        2.853988   -0.686264   -1.224009
     47          6           0        4.116517   -0.409693   -0.424785
     48          6           0        5.179417    0.245916   -1.057389
     49          6           0        5.122328    1.131891   -2.116261
     50          6           0        6.399921    0.313401   -0.198482
     51          6           0        7.631505   -0.210302   -1.029813
     52          6           0        8.807010   -0.196161   -0.196583
     53          6           0       10.196268   -0.730638   -0.913890
     54          6           0       10.094417   -2.228231   -1.326277
     55          6           0       11.370315   -0.481223   -0.012177
     56          6           0       12.700508   -0.766538   -0.568020
     57          6           0       13.868537   -0.221056    0.285242
     58          6           0       15.351103   -0.256350   -0.326980
     59          6           0       15.769181   -1.688813   -0.691876
     60          6           0       16.353667    0.565183    0.599364
     61          6           0       17.703175    0.599729   -0.174464
     62          6           0       18.647749    1.522081    0.665338
     63          6           0       20.133460    1.530598    0.143337
     64          6           0       20.183715    2.296685   -1.236357
     65          6           0       21.125548    2.099853    1.098643
     66          1           0       -4.131265    3.649222    1.617105
     67          1           0      -10.040986    3.887730   -0.483856
     68          1           0      -10.394311   -2.301677   -1.157492
     69          1           0       -2.639386   -0.938401    2.138099
     70          1           0       -2.269493    1.689009    1.255069
     71          1           0       -1.872080    0.995526    3.538473
     72          1           0       -3.201852    2.190823    3.528778
     73          1           0       -3.681992    0.614226    3.701487
     74          1           0       -2.041486   -1.681130   -0.161061
     75          1           0       -2.352778   -0.034903   -0.616102
     76          1           0       -0.289920    0.862538    0.846496
     77          1           0        0.063279   -0.930803    1.424375
     78          1           0       -4.839401    6.081418    0.368644
     79          1           0       -5.892303    6.847008    1.614717
     80          1           0       -4.833941    5.481898    2.292148
     81          1           0       -9.589288    6.048547    0.119323
     82          1           0       -8.716576    8.237600   -0.112902
     83          1           0       -6.995912    7.378833   -0.111946
     84          1           0      -12.245114    3.073523   -2.464946
     85          1           0      -13.332384    1.881492   -1.459462
     86          1           0      -12.374119    3.266567   -0.787048
     87          1           0      -12.583295   -1.506844   -1.143127
     88          1           0      -13.448576   -0.060449   -1.585099
     89          1           0      -13.178777   -1.510451   -3.677238
     90          1           0      -12.200893   -0.142080   -3.891588
     91          1           0      -11.332085   -1.862167   -3.216517
     92          1           0       -9.019335   -4.545109   -1.800168
     93          1           0       -7.902864   -5.800030   -0.987734
     94          1           0       -9.495424   -5.050965   -0.064338
     95          1           0       -3.415739   -3.419537   -0.360894
     96          1           0       -1.523861   -4.211809    3.365814
     97          1           0       -2.980224   -5.469947    3.350798
     98          1           0       -1.175643   -5.963834    2.706760
     99          1           0        2.830867   -1.794232   -1.509018
    100          1           0        2.563879   -0.085369   -2.145368
    101          1           0        4.160510   -0.755947    0.314964
    102          1           0        4.174164    0.967205   -2.560773
    103          1           0        5.426094    2.274969   -1.885888
    104          1           0        5.855094    0.719495   -2.956643
    105          1           0        6.689026    1.422672    0.090075
    106          1           0        6.080557   -0.338381    0.664486
    107          1           0        7.441350   -1.222295   -1.113735
    108          1           0        7.750260    0.247312   -1.926945
    109          1           0        9.263750    0.790573    0.184134
    110          1           0        8.487063   -0.801289    0.777717
    111          1           0       10.098129   -0.151886   -1.850276
    112          1           0        9.333061   -2.432401   -2.084787
    113          1           0       10.920427   -2.538836   -1.707457
    114          1           0       10.043357   -2.819856   -0.687623
    115          1           0       11.260782    0.586616    0.167120
    116          1           0       11.050043   -0.803438    0.980355
    117          1           0       12.773159   -1.810593   -0.939772
    118          1           0       12.748522   -0.380103   -1.691057
    119          1           0       13.672504    0.968432    0.529169
    120          1           0       13.866129   -0.615633    1.337866
    121          1           0       15.371022    0.360534   -1.188912
    122          1           0       15.903171   -2.198558    0.250151
    123          1           0       14.892509   -2.256856   -1.316872
    124          1           0       16.608713   -1.786424   -1.347858
    125          1           0       15.920495    1.665047    0.883810
    126          1           0       16.376074    0.053698    1.394355
    127          1           0       18.076503   -0.266664   -0.564081
    128          1           0       17.487192    1.200514   -1.148728
    129          1           0       18.294796    2.499777    0.986184
    130          1           0       18.461143    0.901868    1.607268
    131          1           0       20.489472    0.481685    0.022061
    132          1           0       19.828605    3.296398   -1.046906
    133          1           0       21.405391    2.572720   -1.330163
    134          1           0       19.744088    1.569559   -2.062645
    135          1           0       21.264646    1.521776    1.921922
    136          1           0       21.993404    2.149981    0.469319
    137          1           0       20.887724    3.054599    1.326466
 ---------------------------------------------------------------------

 SCF Done:  E(RCAM-B3LYP) =  -2932.50259937     A.U. after   18 cycles

 Excitation energies and oscillator strengths:

 Excited State   1:      Singlet-A      2.0856 eV  594.47 nm  f=0.3130  <S**2>=0.000
     240 -> 242       -0.10338
     240 -> 243       -0.19907
     241 -> 242        0.65732
     241 -> 243       -0.10324
 This state for optimization and/or second-order correction.
 Total Energy, E(TD-HF/TD-KS) =  -2932.42595408
 Copying the excited state density for this state as the 1-particle RhoCI density.

 The electronic state is 1-A.
 Alpha  occ. eigenvalues --  -46.84078 -19.27017 -19.25980 -19.21711 -19.21632
 Alpha  occ. eigenvalues --  -19.20979 -14.42457 -14.40096 -14.39309 -14.38526
 Alpha  occ. eigenvalues --  -10.40112 -10.39993 -10.36437 -10.33024 -10.32608
 Alpha  occ. eigenvalues --  -10.32167 -10.30707 -10.30509 -10.30276 -10.29899
 Alpha  occ. eigenvalues --  -10.29877 -10.29867 -10.29773 -10.28237 -10.27852
 Alpha  occ. eigenvalues --  -10.27811 -10.27765 -10.27577 -10.27504 -10.27487
 Alpha  occ. eigenvalues --  -10.27469 -10.27424 -10.27238 -10.27091 -10.27070
 Alpha  occ. eigenvalues --  -10.26907 -10.26814 -10.26744 -10.26675 -10.26611
 Alpha  occ. eigenvalues --  -10.26419 -10.26358 -10.26338 -10.26303 -10.26294
 Alpha  occ. eigenvalues --  -10.26217 -10.26203 -10.26171 -10.26006 -10.25852
 Alpha  occ. eigenvalues --  -10.25803 -10.25729 -10.25688 -10.25428 -10.25227
 Alpha  occ. eigenvalues --  -10.25189 -10.25112 -10.25069 -10.24984 -10.24961
 Alpha  occ. eigenvalues --  -10.24390 -10.24293 -10.23810 -10.21837 -10.20385
 Alpha  occ. eigenvalues --   -3.13159  -1.87868  -1.87422  -1.87309  -1.19321
 Alpha  occ. eigenvalues --   -1.15818  -1.09629  -1.08147  -1.08098  -1.05717
 Alpha  occ. eigenvalues --   -1.03326  -1.02322  -1.01232  -0.93547  -0.92585
 Alpha  occ. eigenvalues --   -0.90441  -0.90301  -0.89800  -0.89425  -0.88244
 Alpha  occ. eigenvalues --   -0.87895  -0.87752  -0.87562  -0.86849  -0.86371
 Alpha  occ. eigenvalues --   -0.85310  -0.84475  -0.83250  -0.82815  -0.82142
 Alpha  occ. eigenvalues --   -0.82066  -0.81209  -0.81017  -0.80414  -0.78971
 Alpha  occ. eigenvalues --   -0.77679  -0.77386  -0.76867  -0.76249  -0.75746
 Alpha  occ. eigenvalues --   -0.75601  -0.74238  -0.74076  -0.72733  -0.72115
 Alpha  occ. eigenvalues --   -0.71446  -0.70602  -0.70019  -0.69207  -0.68431
 Alpha  occ. eigenvalues --   -0.67148  -0.66360  -0.65297  -0.65158  -0.64841
 Alpha  occ. eigenvalues --   -0.63940  -0.63814  -0.63367  -0.63260  -0.62474
 Alpha  occ. eigenvalues --   -0.62243  -0.60865  -0.60411  -0.59998  -0.59626
 Alpha  occ. eigenvalues --   -0.58876  -0.58312  -0.57909  -0.57761  -0.56728
 Alpha  occ. eigenvalues --   -0.56325  -0.55688  -0.55201  -0.55003  -0.54453
 Alpha  occ. eigenvalues --   -0.54203  -0.54073  -0.53997  -0.53750  -0.53286
 Alpha  occ. eigenvalues --   -0.52820  -0.52452  -0.52169  -0.51844  -0.51528
 Alpha  occ. eigenvalues --   -0.51293  -0.51113  -0.50864  -0.50673  -0.50450
 Alpha  occ. eigenvalues --   -0.50298  -0.50070  -0.49830  -0.49713  -0.49646
 Alpha  occ. eigenvalues --   -0.49220  -0.49164  -0.49002  -0.48417  -0.48242
 Alpha  occ. eigenvalues --   -0.48064  -0.47992  -0.47793  -0.47732  -0.47487
 Alpha  occ. eigenvalues --   -0.47103  -0.46757  -0.46693  -0.46066  -0.46038
 Alpha  occ. eigenvalues --   -0.45992  -0.45870  -0.45777  -0.45501  -0.45303
 Alpha  occ. eigenvalues --   -0.45147  -0.45004  -0.44880  -0.44696  -0.44332
 Alpha  occ. eigenvalues --   -0.44250  -0.43912  -0.43814  -0.43611  -0.43407
 Alpha  occ. eigenvalues --   -0.43162  -0.42823  -0.42676  -0.42579  -0.42042
 Alpha  occ. eigenvalues --   -0.41885  -0.41663  -0.41379  -0.41009  -0.40906
 Alpha  occ. eigenvalues --   -0.40812  -0.40679  -0.40666  -0.40517  -0.40415
 Alpha  occ. eigenvalues --   -0.39693  -0.39641  -0.39441  -0.39374  -0.39141
 Alpha  occ. eigenvalues --   -0.38853  -0.38536  -0.38207  -0.37954  -0.37872
 Alpha  occ. eigenvalues --   -0.37691  -0.37290  -0.37230  -0.37206  -0.36580
 Alpha  occ. eigenvalues --   -0.36401  -0.36320  -0.35840  -0.35406  -0.34970
 Alpha  occ. eigenvalues --   -0.34962  -0.34527  -0.34403  -0.33906  -0.33415
 Alpha  occ. eigenvalues --   -0.32956  -0.32846  -0.32480  -0.31285  -0.30201
 Alpha  occ. eigenvalues --   -0.30083  -0.29507  -0.28496  -0.26641  -0.23668
 Alpha  occ. eigenvalues --   -0.21010
 Alpha virt. eigenvalues --   -0.06648  -0.02458   0.00663   0.04018   0.04397
 Alpha virt. eigenvalues --    0.04918   0.05788   0.06377   0.06589   0.07439
 Alpha virt. eigenvalues --    0.08309   0.10192   0.10852   0.11505   0.11525

 Mulliken charges:
               1
     1  Mg   0.819768
     2  C    0.072852
     3  C   -0.174521
     4  C   -0.126844
     5  C   -0.189624
     6  N   -0.629297
     7  C    0.314644
     8  C   -0.167185
     9  C   -0.140624
    10  C    0.328142
    11  C   -0.304466
    12  C   -0.151289
    13  C   -0.264610
    14  C    0.614160
    15  O   -0.480942
    16  O   -0.500847
    17  N   -0.716294
    18  C    0.313707
    19  C   -0.026427
    20  C    0.023606
    21  C    0.244482
    22  C   -0.364864
    23  C   -0.075149
    24  C   -0.243951
    25  N   -0.671688
    26  C    0.270186
    27  C    0.026165
    28  C    0.035785
    29  C    0.276058
    30  C   -0.372852
    31  C   -0.217900
    32  C   -0.296993
    33  N   -0.746729
    34  C    0.304563
    35  C   -0.031659
    36  C    0.050327
    37  C    0.311105
    38  C   -0.354160
    39  C    0.364486
    40  O   -0.487579
    41  C   -0.310075
    42  C    0.620924
    43  O   -0.475299
    44  O   -0.443593
    45  C   -0.075640
    46  C   -0.003492
    47  C   -0.013201
    48  C    0.127697
    49  C   -0.346608
    50  C   -0.227047
    51  C   -0.170774
    52  C   -0.175436
    53  C   -0.076804
    54  C   -0.292554
    55  C   -0.167661
    56  C   -0.175055
    57  C   -0.173957
    58  C   -0.072305
    59  C   -0.308866
    60  C   -0.173414
    61  C   -0.183303
    62  C   -0.166517
    63  C   -0.072487
    64  C   -0.294249
    65  C   -0.299293
    66  H    0.096283
    67  H    0.083657
    68  H    0.073088
    69  H    0.123115
    70  H    0.093020
    71  H    0.101283
    72  H    0.116347
    73  H    0.104750
    74  H    0.114775
    75  H    0.126638
    76  H    0.124163
    77  H    0.146009
    78  H    0.101748
    79  H    0.117577
    80  H    0.095813
    81  H    0.087498
    82  H    0.102091
    83  H    0.092428
    84  H    0.123276
    85  H    0.086087
    86  H    0.133442
    87  H    0.120731
    88  H    0.073111
    89  H    0.089864
    90  H    0.131023
    91  H    0.101570
    92  H    0.134430
    93  H    0.140565
    94  H    0.128357
    95  H    0.176591
    96  H    0.137422
    97  H    0.140278
    98  H    0.109018
    99  H    0.120875
   100  H    0.127681
   101  H    0.012615
   102  H    0.105483
   103  H    0.118968
   104  H    0.099433
   105  H    0.086098
   106  H    0.090939
   107  H    0.117674
   108  H    0.101501
   109  H    0.069481
   110  H    0.063201
   111  H    0.078967
   112  H    0.085896
   113  H    0.096684
   114  H    0.101633
   115  H    0.092387
   116  H    0.099873
   117  H    0.096734
   118  H    0.077144
   119  H    0.062386
   120  H    0.087394
   121  H    0.094349
   122  H    0.107202
   123  H    0.081318
   124  H    0.108931
   125  H    0.077689
   126  H    0.108248
   127  H    0.109648
   128  H    0.074592
   129  H    0.092349
   130  H    0.074671
   131  H    0.078677
   132  H    0.116040
   133  H    0.060759
   134  H    0.106482
   135  H    0.109288
   136  H    0.094300
   137  H    0.101832
 Sum of Mulliken charges =   0.00000

 Dipole moment (field-independent basis, Debye):
    X=              1.8941    Y=              2.3522    Z=             -0.3110  Tot=              3.0360
 Quadrupole moment (field-independent basis, Debye-Ang):
   XX=           -340.6617   YY=           -400.2624   ZZ=           -398.7375
   XY=            -18.4775   XZ=             18.6342   YZ=             -3.0611

 Normal termination of Gaussian 09 at Sat Jun 29 00:48:58 2019.
