 Gaussian 09, Revision D.01,
 Gaussian 09:  ES64L-G09RevD.01 24-Apr-2013

 -------------------------------------
 # td=(NStates=1) CAM-B3LYP/6-31G(d,p)
 -------------------------------------

 --
 TD
 --
 Symbolic Z-matrix:
 Charge =  0 Multiplicity = 1

                         Standard orientation:
 ---------------------------------------------------------------------
 Center     Atomic      Atomic             Coordinates (Angstroms)
 Number     Number       Type             X           Y           Z
 ---------------------------------------------------------------------
      1         12           0       -7.147646    0.629519    0.013498
      2          6           0       -4.817954   -1.906043    0.624019
      3          6           0       -4.797311    2.862060    1.199018
      4          6           0       -9.400434    3.103358   -0.347493
      5          6           0       -9.514473   -1.737757   -0.901955
      6          7           0       -5.050680    0.522558    0.677110
      7          6           0       -4.304591   -0.637175    0.842742
      8          6           0       -2.887477   -0.282252    1.199450
      9          6           0       -2.994694    1.068557    1.688707
     10          6           0       -4.393718    1.538576    1.225775
     11          6           0       -2.941169    1.249762    3.332943
     12          6           0       -1.997588   -0.604735   -0.040555
     13          6           0       -0.534509   -0.469290    0.442080
     14          6           0        0.449547   -0.656993   -0.745225
     15          8           0        0.181834   -1.116056   -1.825152
     16          8           0        1.717475   -0.489938   -0.342982
     17          7           0       -7.125359    2.627528    0.409398
     18          6           0       -6.068938    3.393226    0.776831
     19          6           0       -6.466224    4.782342    0.871437
     20          6           0       -7.787055    4.798579    0.361809
     21          6           0       -8.167509    3.522026    0.074923
     22          6           0       -5.558856    5.874765    1.164871
     23          6           0       -8.588054    6.009928    0.259566
     24          6           0       -8.247948    7.280220   -0.054736
     25          7           0       -9.056779    0.667662   -0.518716
     26          6           0       -9.839018    1.767658   -0.659880
     27          6           0      -11.270659    1.429339   -0.969556
     28          6           0      -11.260078    0.003050   -1.092410
     29          6           0       -9.876523   -0.346762   -0.829009
     30          6           0      -12.477642    2.337826   -0.986292
     31          6           0      -12.338715   -0.935824   -1.555121
     32          6           0      -12.360084   -1.074078   -3.148780
     33          7           0       -7.202524   -1.355269   -0.158291
     34          6           0       -8.244420   -2.241728   -0.541473
     35          6           0       -7.744321   -3.583379   -0.492667
     36          6           0       -6.492691   -3.490729   -0.164628
     37          6           0       -6.177170   -2.127442    0.060488
     38          6           0       -8.583068   -4.841570   -0.878260
     39          6           0       -5.296255   -4.384113    0.137316
     40          8           0       -5.160740   -5.543298    0.051807
     41          6           0       -4.194716   -3.276762    0.498311
     42          6           0       -3.525396   -3.687063    1.843925
     43          8           0       -3.719095   -3.231658    2.968786
     44          8           0       -2.573208   -4.620504    1.627677
     45          6           0       -1.944593   -5.168918    2.816282
     46          6           0        2.809849   -0.736169   -1.249123
     47          6           0        4.059441   -0.466991   -0.617227
     48          6           0        5.032244    0.303962   -0.981742
     49          6           0        5.219094    1.128680   -2.240686
     50          6           0        6.314009    0.267524   -0.078275
     51          6           0        7.611636   -0.227558   -0.860891
     52          6           0        8.859211   -0.136513   -0.049344
     53          6           0       10.148550   -0.563760   -0.649579
     54          6           0       10.173034   -1.998236   -1.137596
     55          6           0       11.371183   -0.246954    0.253267
     56          6           0       12.629891   -0.373832   -0.525885
     57          6           0       13.981871    0.121172    0.236633
     58          6           0       15.351263   -0.114589   -0.481256
     59          6           0       15.591027   -1.642309   -0.807833
     60          6           0       16.398214    0.428822    0.392872
     61          6           0       17.818996    0.457291   -0.206134
     62          6           0       18.808740    1.279681    0.730853
     63          6           0       20.250837    1.400181    0.213024
     64          6           0       20.330418    2.045744   -1.246585
     65          6           0       21.282322    1.925494    1.206459
     66          1           0       -4.225966    3.598603    1.536834
     67          1           0      -10.206698    3.739537   -0.660702
     68          1           0      -10.313784   -2.415379   -1.243057
     69          1           0       -2.340642   -0.947915    1.978873
     70          1           0       -2.332430    1.742246    1.089379
     71          1           0       -2.049968    0.899322    3.660850
     72          1           0       -2.872272    2.278629    3.685065
     73          1           0       -3.837782    0.524976    3.566492
     74          1           0       -2.431944   -1.627377   -0.468333
     75          1           0       -2.229470   -0.009101   -0.818955
     76          1           0       -0.222452    0.578287    0.834066
     77          1           0       -0.237848   -1.288193    1.383528
     78          1           0       -4.874120    6.272777    0.383690
     79          1           0       -6.205328    6.611029    1.488082
     80          1           0       -5.055079    5.564248    2.121947
     81          1           0       -9.699676    5.951696    0.472088
     82          1           0       -8.992713    7.984563    0.226961
     83          1           0       -7.281688    7.554581   -0.601613
     84          1           0      -12.468712    2.912404   -1.963684
     85          1           0      -13.377059    1.610046   -1.137323
     86          1           0      -12.579678    3.099249   -0.112958
     87          1           0      -12.294589   -1.969949   -1.193184
     88          1           0      -13.316309   -0.389522   -1.098477
     89          1           0      -13.280459   -1.670596   -3.667206
     90          1           0      -12.412174    0.024822   -3.802266
     91          1           0      -11.409696   -1.479228   -3.447151
     92          1           0       -9.044444   -4.906007   -1.767764
     93          1           0       -7.956626   -5.806205   -0.586700
     94          1           0       -9.436470   -4.975041   -0.072766
     95          1           0       -3.281214   -3.281326   -0.367565
     96          1           0       -1.397629   -4.478095    3.386798
     97          1           0       -2.687101   -5.604185    3.444603
     98          1           0       -1.317237   -5.817282    2.410598
     99          1           0        2.814241   -1.687046   -1.754583
    100          1           0        2.717463   -0.117872   -2.261052
    101          1           0        4.109047   -0.912072    0.348977
    102          1           0        4.303869    0.867451   -3.086614
    103          1           0        5.518879    2.300775   -2.349616
    104          1           0        5.939266    0.487288   -2.882608
    105          1           0        6.620408    1.259267    0.057310
    106          1           0        5.911488   -0.244996    0.908874
    107          1           0        7.589843   -1.366357   -1.150920
    108          1           0        7.689045    0.226725   -1.943592
    109          1           0        9.032488    0.950305    0.278878
    110          1           0        8.737002   -0.865304    0.818586
    111          1           0       10.332019    0.127669   -1.511435
    112          1           0        9.075064   -2.156648   -1.498473
    113          1           0       11.006146   -2.191486   -1.898807
    114          1           0       10.460878   -2.665342   -0.369724
    115          1           0       11.540774    0.786620    0.597737
    116          1           0       11.448903   -0.738460    1.132952
    117          1           0       12.812055   -1.342224   -1.039525
    118          1           0       12.770013    0.316871   -1.307229
    119          1           0       13.769878    1.290609    0.334816
    120          1           0       13.810823   -0.268149    1.171250
    121          1           0       15.390358    0.452179   -1.383080
    122          1           0       15.805441   -2.285285    0.082550
    123          1           0       14.748094   -2.025990   -1.396026
    124          1           0       16.552058   -1.724753   -1.181661
    125          1           0       16.393763    1.497913    0.619048
    126          1           0       16.483426   -0.116274    1.343701
    127          1           0       18.472148   -0.495321   -0.325404
    128          1           0       17.610073    0.861800   -1.137645
    129          1           0       18.265043    2.309712    0.696076
    130          1           0       18.892503    0.796798    1.577600
    131          1           0       20.469811    0.220260   -0.072727
    132          1           0       20.177122    3.074221   -1.217786
    133          1           0       21.319207    2.141438   -1.833315
    134          1           0       19.545044    1.466483   -1.872480
    135          1           0       21.205412    1.261950    2.207422
    136          1           0       22.170801    1.917390    0.933448
    137          1           0       21.023227    3.006477    1.354927
 ---------------------------------------------------------------------

 SCF Done:  E(RCAM-B3LYP) =  -2932.64927746     A.U. after   17 cycles

 Excitation energies and oscillator strengths:

 Excited State   1:      Singlet-A      2.0948 eV  591.86 nm  f=0.2058  <S**2>=0.000
     240 -> 243        0.25529
     241 -> 242        0.64742
 This state for optimization and/or second-order correction.
 Total Energy, E(TD-HF/TD-KS) =  -2932.57229471
 Copying the excited state density for this state as the 1-particle RhoCI density.

 The electronic state is 1-A.
 Alpha  occ. eigenvalues --  -46.83859 -19.26233 -19.25656 -19.22271 -19.20688
 Alpha  occ. eigenvalues --  -19.20381 -14.40855 -14.39667 -14.39613 -14.38554
 Alpha  occ. eigenvalues --  -10.39094 -10.38912 -10.36350 -10.31729 -10.30634
 Alpha  occ. eigenvalues --  -10.30614 -10.30193 -10.30070 -10.29432 -10.29212
 Alpha  occ. eigenvalues --  -10.29179 -10.29176 -10.29159 -10.28975 -10.28794
 Alpha  occ. eigenvalues --  -10.28600 -10.28404 -10.28363 -10.28200 -10.27950
 Alpha  occ. eigenvalues --  -10.27751 -10.27741 -10.27555 -10.27405 -10.27339
 Alpha  occ. eigenvalues --  -10.27290 -10.27281 -10.27134 -10.27080 -10.27076
 Alpha  occ. eigenvalues --  -10.27065 -10.27017 -10.26956 -10.26653 -10.26332
 Alpha  occ. eigenvalues --  -10.26275 -10.26231 -10.26197 -10.26137 -10.25765
 Alpha  occ. eigenvalues --  -10.25599 -10.25305 -10.25064 -10.25038 -10.25031
 Alpha  occ. eigenvalues --  -10.24952 -10.24931 -10.24847 -10.24597 -10.24442
 Alpha  occ. eigenvalues --  -10.24435 -10.24268 -10.23991 -10.23953 -10.23793
 Alpha  occ. eigenvalues --   -3.13030  -1.87726  -1.87288  -1.87204  -1.18393
 Alpha  occ. eigenvalues --   -1.17174  -1.14858  -1.09230  -1.07616  -1.05254
 Alpha  occ. eigenvalues --   -1.04057  -1.03655  -1.02406  -0.91771  -0.91486
 Alpha  occ. eigenvalues --   -0.90976  -0.90300  -0.89981  -0.88858  -0.88619
 Alpha  occ. eigenvalues --   -0.87893  -0.87887  -0.87700  -0.86343  -0.86057
 Alpha  occ. eigenvalues --   -0.84828  -0.84117  -0.83208  -0.82946  -0.82106
 Alpha  occ. eigenvalues --   -0.81580  -0.81340  -0.80215  -0.79698  -0.78101
 Alpha  occ. eigenvalues --   -0.77687  -0.76764  -0.76259  -0.76034  -0.75571
 Alpha  occ. eigenvalues --   -0.75529  -0.74978  -0.74681  -0.74007  -0.72517
 Alpha  occ. eigenvalues --   -0.71644  -0.70448  -0.69643  -0.69158  -0.67800
 Alpha  occ. eigenvalues --   -0.66999  -0.66684  -0.64948  -0.64645  -0.64488
 Alpha  occ. eigenvalues --   -0.64102  -0.63916  -0.63778  -0.62083  -0.61919
 Alpha  occ. eigenvalues --   -0.61572  -0.60745  -0.60216  -0.59623  -0.59171
 Alpha  occ. eigenvalues --   -0.58684  -0.57890  -0.57656  -0.56438  -0.56050
 Alpha  occ. eigenvalues --   -0.55679  -0.55469  -0.55246  -0.55024  -0.54686
 Alpha  occ. eigenvalues --   -0.54472  -0.54121  -0.53791  -0.53397  -0.53135
 Alpha  occ. eigenvalues --   -0.52947  -0.52480  -0.52223  -0.51740  -0.51588
 Alpha  occ. eigenvalues --   -0.51201  -0.51104  -0.51041  -0.50855  -0.50749
 Alpha  occ. eigenvalues --   -0.50303  -0.49962  -0.49839  -0.49708  -0.49355
 Alpha  occ. eigenvalues --   -0.49126  -0.49098  -0.48726  -0.48553  -0.48438
 Alpha  occ. eigenvalues --   -0.48144  -0.47970  -0.47566  -0.47252  -0.47039
 Alpha  occ. eigenvalues --   -0.46952  -0.46725  -0.46524  -0.46395  -0.45950
 Alpha  occ. eigenvalues --   -0.45874  -0.45564  -0.45317  -0.45215  -0.45108
 Alpha  occ. eigenvalues --   -0.45069  -0.44886  -0.44598  -0.44461  -0.44343
 Alpha  occ. eigenvalues --   -0.44177  -0.44021  -0.43718  -0.43638  -0.43371
 Alpha  occ. eigenvalues --   -0.43260  -0.43045  -0.42795  -0.42484  -0.42219
 Alpha  occ. eigenvalues --   -0.41994  -0.41947  -0.41792  -0.41654  -0.41454
 Alpha  occ. eigenvalues --   -0.41282  -0.40946  -0.40669  -0.40420  -0.40299
 Alpha  occ. eigenvalues --   -0.39901  -0.39431  -0.39200  -0.39183  -0.39132
 Alpha  occ. eigenvalues --   -0.39050  -0.38746  -0.38534  -0.38503  -0.37388
 Alpha  occ. eigenvalues --   -0.37037  -0.36810  -0.36741  -0.36721  -0.36348
 Alpha  occ. eigenvalues --   -0.36171  -0.36015  -0.35800  -0.35555  -0.35466
 Alpha  occ. eigenvalues --   -0.35256  -0.34619  -0.34400  -0.33651  -0.33322
 Alpha  occ. eigenvalues --   -0.33221  -0.33134  -0.31744  -0.31507  -0.30627
 Alpha  occ. eigenvalues --   -0.30428  -0.29910  -0.28205  -0.26857  -0.22787
 Alpha  occ. eigenvalues --   -0.21221
 Alpha virt. eigenvalues --   -0.06116  -0.02878   0.02217   0.04176   0.05343
 Alpha virt. eigenvalues --    0.05828   0.05866   0.06575   0.07098   0.07730
 Alpha virt. eigenvalues --    0.08331   0.10522   0.10787   0.11544   0.11758

 Mulliken charges:
               1
     1  Mg   0.832409
     2  C    0.088198
     3  C   -0.188566
     4  C   -0.170312
     5  C   -0.168494
     6  N   -0.621955
     7  C    0.274015
     8  C   -0.133738
     9  C   -0.165535
    10  C    0.353595
    11  C   -0.301679
    12  C   -0.150362
    13  C   -0.261030
    14  C    0.597308
    15  O   -0.462362
    16  O   -0.473896
    17  N   -0.718618
    18  C    0.317254
    19  C   -0.007119
    20  C    0.035247
    21  C    0.321692
    22  C   -0.366623
    23  C   -0.114609
    24  C   -0.234312
    25  N   -0.680346
    26  C    0.249873
    27  C    0.010105
    28  C    0.037369
    29  C    0.287932
    30  C   -0.374901
    31  C   -0.239814
    32  C   -0.287756
    33  N   -0.727193
    34  C    0.228029
    35  C    0.027186
    36  C   -0.018101
    37  C    0.299287
    38  C   -0.375470
    39  C    0.422333
    40  O   -0.406199
    41  C   -0.359617
    42  C    0.623254
    43  O   -0.484263
    44  O   -0.464880
    45  C   -0.074233
    46  C    0.014706
    47  C   -0.134535
    48  C    0.153051
    49  C   -0.371415
    50  C   -0.210166
    51  C   -0.185159
    52  C   -0.158554
    53  C   -0.048729
    54  C   -0.311850
    55  C   -0.174377
    56  C   -0.205484
    57  C   -0.190085
    58  C   -0.057566
    59  C   -0.317904
    60  C   -0.162457
    61  C   -0.205162
    62  C   -0.148894
    63  C   -0.058919
    64  C   -0.317647
    65  C   -0.284118
    66  H    0.049702
    67  H    0.091748
    68  H    0.095230
    69  H    0.111922
    70  H    0.100627
    71  H    0.118256
    72  H    0.115452
    73  H    0.127713
    74  H    0.105097
    75  H    0.128807
    76  H    0.134922
    77  H    0.118196
    78  H    0.127124
    79  H    0.128951
    80  H    0.107920
    81  H    0.090383
    82  H    0.104186
    83  H    0.106027
    84  H    0.122048
    85  H    0.107888
    86  H    0.121496
    87  H    0.117707
    88  H    0.089475
    89  H    0.092558
    90  H    0.074470
    91  H    0.123277
    92  H    0.139248
    93  H    0.133521
    94  H    0.106952
    95  H    0.146569
    96  H    0.125791
    97  H    0.134800
    98  H    0.127848
    99  H    0.136303
   100  H    0.095447
   101  H    0.091868
   102  H    0.074718
   103  H    0.124770
   104  H    0.126906
   105  H    0.111127
   106  H    0.092694
   107  H    0.079020
   108  H    0.088757
   109  H    0.082012
   110  H    0.085059
   111  H    0.080245
   112  H    0.087915
   113  H    0.102948
   114  H    0.112115
   115  H    0.084589
   116  H    0.099095
   117  H    0.077838
   118  H    0.101915
   119  H    0.063727
   120  H    0.100644
   121  H    0.088373
   122  H    0.095138
   123  H    0.106942
   124  H    0.115255
   125  H    0.092571
   126  H    0.089241
   127  H    0.073388
   128  H    0.101096
   129  H    0.075491
   130  H    0.106622
   131  H    0.047744
   132  H    0.105432
   133  H    0.087214
   134  H    0.099672
   135  H    0.077631
   136  H    0.119412
   137  H    0.095322
 Sum of Mulliken charges =   0.00000

 Dipole moment (field-independent basis, Debye):
    X=              1.9797    Y=              3.5094    Z=             -0.1851  Tot=              4.0336
 Quadrupole moment (field-independent basis, Debye-Ang):
   XX=           -339.2572   YY=           -389.8753   ZZ=           -400.1875
   XY=             -8.5266   XZ=             13.7236   YZ=             -3.9531

 Normal termination of Gaussian 09 at Sat Jun 29 09:24:21 2019.
