 Gaussian 09, Revision D.01,
 Gaussian 09:  ES64L-G09RevD.01 24-Apr-2013

 -------------------------------------
 # td=(NStates=1) CAM-B3LYP/6-31G(d,p)
 -------------------------------------

 --
 TD
 --
 Symbolic Z-matrix:
 Charge =  0 Multiplicity = 1

                         Standard orientation:
 ---------------------------------------------------------------------
 Center     Atomic      Atomic             Coordinates (Angstroms)
 Number     Number       Type             X           Y           Z
 ---------------------------------------------------------------------
      1         12           0       -7.074936    0.534952    0.118875
      2          6           0       -4.897220   -2.004414    0.467516
      3          6           0       -4.859751    2.880557    1.216390
      4          6           0       -9.345164    3.069359   -0.347273
      5          6           0       -9.535795   -1.758291   -0.886444
      6          7           0       -5.065685    0.444370    0.801462
      7          6           0       -4.356831   -0.704344    0.779835
      8          6           0       -2.837691   -0.446130    1.235710
      9          6           0       -2.928609    1.124990    1.596029
     10          6           0       -4.419592    1.455750    1.135956
     11          6           0       -2.854446    1.349567    3.102705
     12          6           0       -1.902907   -0.729861    0.040386
     13          6           0       -0.423310   -0.156897    0.366230
     14          6           0        0.469704   -0.479442   -0.743281
     15          8           0        0.133258   -0.967784   -1.774102
     16          8           0        1.764607   -0.205045   -0.380198
     17          7           0       -7.072396    2.598248    0.328626
     18          6           0       -6.025756    3.343848    0.799218
     19          6           0       -6.433066    4.774695    0.892151
     20          6           0       -7.735197    4.845460    0.525720
     21          6           0       -8.118173    3.435091    0.135021
     22          6           0       -5.507966    5.817960    1.346665
     23          6           0       -8.581684    5.982565    0.449480
     24          6           0       -8.162269    7.273329    0.193503
     25          7           0       -9.110204    0.673161   -0.519229
     26          6           0       -9.884080    1.762500   -0.602824
     27          6           0      -11.178861    1.472281   -1.061476
     28          6           0      -11.219219    0.095415   -1.213681
     29          6           0       -9.903908   -0.323872   -0.915450
     30          6           0      -12.347247    2.482810   -1.205611
     31          6           0      -12.391880   -0.785804   -1.736506
     32          6           0      -12.391632   -1.192123   -3.078451
     33          7           0       -7.166964   -1.408612   -0.210556
     34          6           0       -8.223433   -2.248376   -0.581858
     35          6           0       -7.832009   -3.659522   -0.535043
     36          6           0       -6.499276   -3.647202   -0.111191
     37          6           0       -6.138316   -2.200974   -0.011596
     38          6           0       -8.640881   -4.901037   -0.796492
     39          6           0       -5.352372   -4.388058    0.173608
     40          8           0       -5.124667   -5.536029    0.159440
     41          6           0       -4.197257   -3.415389    0.610451
     42          6           0       -3.548648   -3.627053    1.921051
     43          8           0       -3.845961   -3.108553    2.959659
     44          8           0       -2.819774   -4.752854    1.820390
     45          6           0       -2.321345   -5.444720    2.992023
     46          6           0        2.757420   -0.406959   -1.405571
     47          6           0        4.110036   -0.408410   -0.766887
     48          6           0        5.154712    0.385240   -1.016772
     49          6           0        5.160138    1.630256   -2.135878
     50          6           0        6.415739    0.439175   -0.221754
     51          6           0        7.731241   -0.041707   -0.932162
     52          6           0        8.928247    0.000144   -0.157082
     53          6           0       10.166023   -0.450235   -0.944099
     54          6           0       10.170626   -1.989532   -1.350091
     55          6           0       11.372665   -0.313323   -0.015931
     56          6           0       12.684640   -0.493145   -0.803996
     57          6           0       13.870561   -0.110589    0.115554
     58          6           0       15.334799   -0.221595   -0.545199
     59          6           0       15.621652   -1.692054   -0.848033
     60          6           0       16.334573    0.244428    0.466709
     61          6           0       17.848242    0.346972   -0.146138
     62          6           0       18.832146    1.095696    0.849901
     63          6           0       20.343232    1.169988    0.378864
     64          6           0       20.301665    2.121191   -0.899236
     65          6           0       21.205376    1.826040    1.425172
     66          1           0       -4.130421    3.486392    1.366580
     67          1           0      -10.245026    3.886382   -0.288584
     68          1           0      -10.348603   -2.614630   -1.123693
     69          1           0       -2.730700   -0.978099    2.162055
     70          1           0       -2.319165    1.555977    1.143871
     71          1           0       -1.785489    1.070912    3.639210
     72          1           0       -3.077371    2.453775    3.415988
     73          1           0       -3.554878    0.872523    3.596898
     74          1           0       -1.881872   -1.922713   -0.160807
     75          1           0       -2.240712   -0.096203   -0.826729
     76          1           0       -0.549484    0.810638    0.708290
     77          1           0       -0.055028   -0.588694    1.347160
     78          1           0       -4.998789    6.205291    0.505054
     79          1           0       -6.217483    6.551664    1.876065
     80          1           0       -4.659024    5.390548    2.077578
     81          1           0       -9.646114    5.855799    0.533461
     82          1           0       -8.824824    8.072032   -0.038838
     83          1           0       -7.064935    7.335234   -0.028620
     84          1           0      -12.259957    3.036227   -2.334603
     85          1           0      -13.331020    1.739461   -1.275969
     86          1           0      -12.604969    3.209794   -0.350146
     87          1           0      -12.398894   -1.813650   -1.087700
     88          1           0      -13.353195   -0.229248   -1.553497
     89          1           0      -13.118665   -1.903616   -3.265978
     90          1           0      -12.420780   -0.375805   -4.045010
     91          1           0      -11.389105   -1.580254   -3.370376
     92          1           0       -8.813238   -4.916029   -1.873218
     93          1           0       -8.098548   -5.847940   -0.486060
     94          1           0       -9.600010   -4.930631   -0.120334
     95          1           0       -3.471569   -3.635273   -0.195021
     96          1           0       -1.477665   -4.786513    3.473047
     97          1           0       -3.160537   -5.472000    3.798609
     98          1           0       -1.961809   -6.348007    2.457465
     99          1           0        2.594733   -1.346287   -1.720116
    100          1           0        2.720234    0.163992   -2.329688
    101          1           0        4.136934   -1.009980    0.139184
    102          1           0        4.171965    1.859546   -2.535304
    103          1           0        5.388681    2.665276   -1.827244
    104          1           0        5.675708    1.251418   -3.133117
    105          1           0        6.450782    1.436062   -0.165625
    106          1           0        6.170533   -0.226491    0.611395
    107          1           0        7.368852   -0.998768   -1.520174
    108          1           0        7.992927    0.626978   -1.917826
    109          1           0        9.202123    0.883285    0.237617
    110          1           0        8.711693   -0.715381    0.621705
    111          1           0       10.378827    0.176018   -1.689973
    112          1           0        9.460952   -2.151578   -2.070542
    113          1           0       11.238101   -2.291133   -1.740569
    114          1           0       10.006647   -2.389874   -0.498858
    115          1           0       11.306611    0.576424    0.710930
    116          1           0       11.359844   -1.295278    0.563126
    117          1           0       12.789171   -1.531626   -1.391663
    118          1           0       12.710104    0.365999   -1.621455
    119          1           0       13.670987    0.864407    0.404314
    120          1           0       13.889143   -0.944838    1.104151
    121          1           0       15.387265    0.297416   -1.424338
    122          1           0       15.847051   -2.482427   -0.062269
    123          1           0       14.919379   -2.058757   -1.694561
    124          1           0       16.619406   -1.617711   -1.494211
    125          1           0       16.060232    1.387848    0.721404
    126          1           0       16.249870   -0.382273    1.448486
    127          1           0       18.324433   -0.629747   -0.349326
    128          1           0       17.516729    0.908748   -1.071913
    129          1           0       18.639912    2.068602    1.068540
    130          1           0       18.803905    0.565905    1.773373
    131          1           0       20.659235    0.195057    0.099560
    132          1           0       19.829641    3.092424   -0.713015
    133          1           0       21.467533    2.410815   -1.306777
    134          1           0       19.825832    1.547249   -1.671793
    135          1           0       21.111302    1.360786    2.362756
    136          1           0       22.278161    1.873986    1.013476
    137          1           0       20.894813    2.887607    1.684991
 ---------------------------------------------------------------------

 SCF Done:  E(RCAM-B3LYP) =  -2932.60466434     A.U. after   17 cycles

 Excitation energies and oscillator strengths:

 Excited State   1:      Singlet-A      2.1995 eV  563.69 nm  f=0.1606  <S**2>=0.000
     240 -> 243       -0.31679
     241 -> 242        0.61394
 This state for optimization and/or second-order correction.
 Total Energy, E(TD-HF/TD-KS) =  -2932.52383426
 Copying the excited state density for this state as the 1-particle RhoCI density.

 The electronic state is 1-A.
 Alpha  occ. eigenvalues --  -46.85407 -19.25911 -19.25460 -19.21609 -19.20721
 Alpha  occ. eigenvalues --  -19.19665 -14.42860 -14.40257 -14.39099 -14.38462
 Alpha  occ. eigenvalues --  -10.39265 -10.38689 -10.34113 -10.32884 -10.32052
 Alpha  occ. eigenvalues --  -10.31563 -10.30433 -10.29789 -10.29614 -10.29305
 Alpha  occ. eigenvalues --  -10.29230 -10.29168 -10.28960 -10.28832 -10.28747
 Alpha  occ. eigenvalues --  -10.28310 -10.28189 -10.27859 -10.27811 -10.27770
 Alpha  occ. eigenvalues --  -10.27473 -10.27428 -10.27381 -10.27337 -10.27241
 Alpha  occ. eigenvalues --  -10.27206 -10.27025 -10.26844 -10.26827 -10.26819
 Alpha  occ. eigenvalues --  -10.26672 -10.26668 -10.26623 -10.26609 -10.26525
 Alpha  occ. eigenvalues --  -10.26474 -10.26422 -10.26288 -10.25965 -10.25829
 Alpha  occ. eigenvalues --  -10.25693 -10.25583 -10.25516 -10.25480 -10.25468
 Alpha  occ. eigenvalues --  -10.25443 -10.25210 -10.25077 -10.25035 -10.24541
 Alpha  occ. eigenvalues --  -10.24489 -10.24368 -10.24057 -10.23750 -10.23189
 Alpha  occ. eigenvalues --   -3.14372  -1.89083  -1.88603  -1.88555  -1.18310
 Alpha  occ. eigenvalues --   -1.17954  -1.13405  -1.10406  -1.09379  -1.07321
 Alpha  occ. eigenvalues --   -1.04661  -1.04061  -1.03076  -0.92269  -0.91858
 Alpha  occ. eigenvalues --   -0.90377  -0.89939  -0.89790  -0.89298  -0.89030
 Alpha  occ. eigenvalues --   -0.88280  -0.87916  -0.87814  -0.86748  -0.85895
 Alpha  occ. eigenvalues --   -0.85090  -0.84181  -0.83491  -0.82894  -0.82675
 Alpha  occ. eigenvalues --   -0.81367  -0.80713  -0.80610  -0.79370  -0.78461
 Alpha  occ. eigenvalues --   -0.77673  -0.76449  -0.76394  -0.76117  -0.74743
 Alpha  occ. eigenvalues --   -0.74634  -0.74254  -0.73682  -0.73322  -0.72273
 Alpha  occ. eigenvalues --   -0.71737  -0.71043  -0.69338  -0.68592  -0.67999
 Alpha  occ. eigenvalues --   -0.67365  -0.67171  -0.66264  -0.64733  -0.64564
 Alpha  occ. eigenvalues --   -0.63875  -0.63345  -0.63329  -0.62906  -0.62493
 Alpha  occ. eigenvalues --   -0.61989  -0.61201  -0.60081  -0.59857  -0.59656
 Alpha  occ. eigenvalues --   -0.58779  -0.58465  -0.57807  -0.57266  -0.56678
 Alpha  occ. eigenvalues --   -0.56289  -0.55777  -0.55443  -0.55127  -0.54940
 Alpha  occ. eigenvalues --   -0.54736  -0.54287  -0.53724  -0.53473  -0.53046
 Alpha  occ. eigenvalues --   -0.52691  -0.52322  -0.52144  -0.51776  -0.51593
 Alpha  occ. eigenvalues --   -0.51436  -0.51347  -0.51041  -0.50666  -0.50429
 Alpha  occ. eigenvalues --   -0.50258  -0.50018  -0.49930  -0.49877  -0.49584
 Alpha  occ. eigenvalues --   -0.49509  -0.49189  -0.48723  -0.48642  -0.48307
 Alpha  occ. eigenvalues --   -0.48060  -0.47791  -0.47590  -0.47481  -0.47083
 Alpha  occ. eigenvalues --   -0.46775  -0.46679  -0.46360  -0.46155  -0.46055
 Alpha  occ. eigenvalues --   -0.45921  -0.45742  -0.45532  -0.45291  -0.45236
 Alpha  occ. eigenvalues --   -0.44926  -0.44753  -0.44661  -0.44230  -0.44074
 Alpha  occ. eigenvalues --   -0.44050  -0.43959  -0.43586  -0.43461  -0.43247
 Alpha  occ. eigenvalues --   -0.43157  -0.43050  -0.42867  -0.42589  -0.42459
 Alpha  occ. eigenvalues --   -0.42397  -0.42056  -0.41831  -0.41810  -0.41203
 Alpha  occ. eigenvalues --   -0.41013  -0.40911  -0.40694  -0.40483  -0.40094
 Alpha  occ. eigenvalues --   -0.39579  -0.39488  -0.39124  -0.39044  -0.38832
 Alpha  occ. eigenvalues --   -0.38346  -0.38247  -0.38208  -0.37997  -0.37641
 Alpha  occ. eigenvalues --   -0.37305  -0.37228  -0.36966  -0.36465  -0.36448
 Alpha  occ. eigenvalues --   -0.36171  -0.35775  -0.35682  -0.35634  -0.35429
 Alpha  occ. eigenvalues --   -0.35381  -0.35360  -0.35153  -0.34739  -0.33698
 Alpha  occ. eigenvalues --   -0.33202  -0.32817  -0.32791  -0.30761  -0.30231
 Alpha  occ. eigenvalues --   -0.29899  -0.29711  -0.28193  -0.27459  -0.23101
 Alpha  occ. eigenvalues --   -0.20734
 Alpha virt. eigenvalues --   -0.05049  -0.03774   0.00947   0.04279   0.05489
 Alpha virt. eigenvalues --    0.05880   0.06078   0.06194   0.06440   0.07862
 Alpha virt. eigenvalues --    0.08861   0.10682   0.11299   0.11497   0.11537

 Mulliken charges:
               1
     1  Mg   0.831214
     2  C    0.067702
     3  C   -0.177524
     4  C   -0.203279
     5  C   -0.173952
     6  N   -0.577137
     7  C    0.233247
     8  C   -0.171566
     9  C   -0.076574
    10  C    0.277358
    11  C   -0.306176
    12  C   -0.160412
    13  C   -0.299856
    14  C    0.638862
    15  O   -0.454433
    16  O   -0.499557
    17  N   -0.720091
    18  C    0.356007
    19  C    0.017031
    20  C    0.042184
    21  C    0.327901
    22  C   -0.383080
    23  C   -0.093509
    24  C   -0.250320
    25  N   -0.662010
    26  C    0.283844
    27  C    0.017541
    28  C    0.031602
    29  C    0.260362
    30  C   -0.353606
    31  C   -0.215067
    32  C   -0.277463
    33  N   -0.725997
    34  C    0.247045
    35  C    0.027134
    36  C    0.041120
    37  C    0.278781
    38  C   -0.378493
    39  C    0.323421
    40  O   -0.432324
    41  C   -0.304037
    42  C    0.619608
    43  O   -0.471451
    44  O   -0.458291
    45  C   -0.080011
    46  C    0.035138
    47  C   -0.159873
    48  C    0.096676
    49  C   -0.379698
    50  C   -0.191168
    51  C   -0.185797
    52  C   -0.139148
    53  C   -0.072076
    54  C   -0.303673
    55  C   -0.177065
    56  C   -0.180723
    57  C   -0.139248
    58  C   -0.054188
    59  C   -0.305449
    60  C   -0.161169
    61  C   -0.187268
    62  C   -0.167576
    63  C   -0.071394
    64  C   -0.292156
    65  C   -0.299230
    66  H    0.055732
    67  H    0.072002
    68  H    0.103480
    69  H    0.139379
    70  H    0.069715
    71  H    0.081294
    72  H    0.094472
    73  H    0.142152
    74  H    0.110003
    75  H    0.122564
    76  H    0.147361
    77  H    0.135036
    78  H    0.138962
    79  H    0.126051
    80  H    0.099131
    81  H    0.096475
    82  H    0.113556
    83  H    0.101386
    84  H    0.099340
    85  H    0.085805
    86  H    0.120383
    87  H    0.083354
    88  H    0.099151
    89  H    0.115553
    90  H    0.069018
    91  H    0.105012
    92  H    0.137544
    93  H    0.146429
    94  H    0.116189
    95  H    0.158353
    96  H    0.112545
    97  H    0.136423
    98  H    0.145511
    99  H    0.130680
   100  H    0.116767
   101  H    0.090060
   102  H    0.108424
   103  H    0.121057
   104  H    0.111486
   105  H    0.113880
   106  H    0.096756
   107  H    0.090035
   108  H    0.058120
   109  H    0.102252
   110  H    0.089799
   111  H    0.089917
   112  H    0.108007
   113  H    0.083531
   114  H    0.118734
   115  H    0.081778
   116  H    0.085806
   117  H    0.091913
   118  H    0.064724
   119  H    0.098077
   120  H    0.044992
   121  H    0.094194
   122  H    0.108656
   123  H    0.089125
   124  H    0.078186
   125  H    0.064736
   126  H    0.081354
   127  H    0.099938
   128  H    0.091687
   129  H    0.096953
   130  H    0.090578
   131  H    0.090881
   132  H    0.105307
   133  H    0.052438
   134  H    0.110104
   135  H    0.102897
   136  H    0.095579
   137  H    0.090568
 Sum of Mulliken charges =   0.00000

 Dipole moment (field-independent basis, Debye):
    X=              2.0315    Y=              3.2279    Z=              0.7692  Tot=              3.8908
 Quadrupole moment (field-independent basis, Debye-Ang):
   XX=           -382.0446   YY=           -389.0934   ZZ=           -400.3498
   XY=             -9.4977   XZ=              5.7818   YZ=             -3.6566

 Normal termination of Gaussian 09 at Thu Jun 27 04:13:38 2019.
