 Gaussian 09, Revision D.01,
 Gaussian 09:  ES64L-G09RevD.01 24-Apr-2013

 -------------------------------------
 # td=(NStates=1) CAM-B3LYP/6-31G(d,p)
 -------------------------------------

 --
 TD
 --
 Symbolic Z-matrix:
 Charge =  0 Multiplicity = 1

                         Standard orientation:
 ---------------------------------------------------------------------
 Center     Atomic      Atomic             Coordinates (Angstroms)
 Number     Number       Type             X           Y           Z
 ---------------------------------------------------------------------
      1         12           0       -7.094591    0.549223    0.057919
      2          6           0       -4.919978   -2.034387    0.491726
      3          6           0       -4.849978    2.817636    1.089506
      4          6           0       -9.379118    3.146757   -0.300574
      5          6           0       -9.452248   -1.684766   -0.990384
      6          7           0       -5.090996    0.358835    0.664470
      7          6           0       -4.354757   -0.691383    0.780922
      8          6           0       -2.940798   -0.437998    1.248278
      9          6           0       -3.028912    1.094170    1.617381
     10          6           0       -4.362802    1.467956    1.084729
     11          6           0       -2.960288    1.364878    3.146224
     12          6           0       -1.875709   -0.739697    0.181422
     13          6           0       -0.455928   -0.443618    0.563301
     14          6           0        0.489375   -0.707912   -0.528009
     15          8           0        0.229777   -1.041834   -1.619751
     16          8           0        1.760892   -0.379533   -0.176693
     17          7           0       -7.094655    2.600942    0.352731
     18          6           0       -6.069100    3.333835    0.792047
     19          6           0       -6.421589    4.711933    0.874119
     20          6           0       -7.764478    4.839723    0.387811
     21          6           0       -8.141137    3.417800    0.124628
     22          6           0       -5.446131    5.791952    1.180332
     23          6           0       -8.670379    6.030874    0.331352
     24          6           0       -8.088525    7.180031    0.089980
     25          7           0       -9.141690    0.693261   -0.659758
     26          6           0       -9.968026    1.906389   -0.636338
     27          6           0      -11.224159    1.564356   -0.913713
     28          6           0      -11.284777    0.124683   -1.225493
     29          6           0       -9.949722   -0.368864   -0.946839
     30          6           0      -12.381302    2.400715   -1.073895
     31          6           0      -12.415622   -0.640278   -1.562034
     32          6           0      -12.272675   -1.108079   -3.019179
     33          7           0       -7.190128   -1.369569   -0.189870
     34          6           0       -8.276365   -2.225261   -0.669322
     35          6           0       -7.784387   -3.597210   -0.552771
     36          6           0       -6.510406   -3.575553   -0.055423
     37          6           0       -6.247682   -2.216636    0.093097
     38          6           0       -8.755772   -4.838785   -0.772332
     39          6           0       -5.327320   -4.362694    0.194813
     40          8           0       -5.197155   -5.595430    0.180668
     41          6           0       -4.124807   -3.276650    0.533093
     42          6           0       -3.510963   -3.641093    1.862549
     43          8           0       -3.759053   -3.062739    2.912818
     44          8           0       -2.690048   -4.746417    1.707675
     45          6           0       -2.128215   -5.086624    2.971287
     46          6           0        2.682390   -0.557943   -1.222540
     47          6           0        4.171462   -0.383952   -0.589071
     48          6           0        5.131280    0.378031   -1.054569
     49          6           0        5.096372    1.152215   -2.239635
     50          6           0        6.451961    0.394434   -0.297021
     51          6           0        7.617559   -0.296063   -1.014057
     52          6           0        8.846920   -0.328556   -0.115570
     53          6           0       10.114529   -0.656097   -0.915830
     54          6           0       10.115241   -2.090970   -1.554449
     55          6           0       11.326419   -0.266802   -0.099665
     56          6           0       12.752250   -0.487449   -0.773750
     57          6           0       13.876690   -0.121331    0.133458
     58          6           0       15.325931    0.021895   -0.609505
     59          6           0       15.745863   -1.353898   -1.163047
     60          6           0       16.395482    0.530723    0.409654
     61          6           0       17.765052    0.737774   -0.158240
     62          6           0       18.802164    1.288993    0.843228
     63          6           0       20.309701    1.249716    0.419984
     64          6           0       20.536114    2.128920   -0.862467
     65          6           0       21.254645    1.639873    1.622161
     66          1           0       -3.963735    3.516469    1.322792
     67          1           0       -9.914664    3.894917   -0.575650
     68          1           0      -10.297140   -2.333885   -1.074761
     69          1           0       -2.675991   -0.941858    2.339962
     70          1           0       -2.204540    1.657155    1.197861
     71          1           0       -2.321992    0.863354    3.766460
     72          1           0       -2.919475    2.413233    3.270529
     73          1           0       -3.846702    0.913537    3.686817
     74          1           0       -2.111097   -1.768305   -0.078212
     75          1           0       -2.436819   -0.221704   -0.714267
     76          1           0       -0.217163    0.619915    1.126376
     77          1           0       -0.396336   -1.082540    1.388424
     78          1           0       -4.976386    6.113557    0.248076
     79          1           0       -5.832927    6.883015    1.761504
     80          1           0       -4.777870    5.541875    2.108108
     81          1           0       -9.646418    5.941881    0.209051
     82          1           0       -8.873355    7.861898   -0.224331
     83          1           0       -6.955225    7.404415   -0.321369
     84          1           0      -12.559194    2.870981   -2.188229
     85          1           0      -13.382953    1.909428   -0.850625
     86          1           0      -12.253970    3.124368   -0.151553
     87          1           0      -12.333545   -1.547898   -1.120101
     88          1           0      -13.468048   -0.179940   -1.497719
     89          1           0      -13.061579   -1.714541   -3.340691
     90          1           0      -12.256330   -0.070058   -3.583500
     91          1           0      -11.343018   -1.590316   -3.338733
     92          1           0       -9.330981   -4.950099   -1.755728
     93          1           0       -7.627057   -5.583179   -0.963529
     94          1           0       -9.457007   -4.993195    0.256995
     95          1           0       -3.317995   -3.376531   -0.086950
     96          1           0       -1.512371   -4.384826    3.225664
     97          1           0       -3.003646   -5.215110    3.838122
     98          1           0       -1.507154   -5.911879    2.703059
     99          1           0        2.620465   -1.809382   -1.598894
    100          1           0        2.491986    0.135099   -2.080950
    101          1           0        4.172802   -0.926241    0.222776
    102          1           0        4.165348    1.124082   -2.783187
    103          1           0        5.564687    2.084348   -2.186535
    104          1           0        5.678670    0.802938   -3.072732
    105          1           0        6.739445    1.441019    0.046589
    106          1           0        6.390249   -0.159181    0.734090
    107          1           0        7.154135   -1.275846   -1.393405
    108          1           0        7.673996    0.169132   -2.063970
    109          1           0        9.083751    0.626930    0.215629
    110          1           0        8.603276   -0.950914    0.577494
    111          1           0       10.208639   -0.020107   -1.563735
    112          1           0        9.327922   -2.137583   -2.388755
    113          1           0       11.135800   -2.601428   -1.879226
    114          1           0        9.842535   -2.803657   -0.570209
    115          1           0       11.275146    0.771502    0.431296
    116          1           0       11.297122   -1.074492    0.790241
    117          1           0       12.855788   -1.343603   -1.013265
    118          1           0       12.815751    0.113214   -1.806640
    119          1           0       13.703996    0.873996    0.693911
    120          1           0       13.925369   -1.026995    0.771841
    121          1           0       15.102676    0.728168   -1.473029
    122          1           0       15.925754   -2.112474   -0.229883
    123          1           0       15.012668   -1.900772   -1.787730
    124          1           0       16.675144   -1.309783   -1.821903
    125          1           0       16.065728    1.509660    0.821487
    126          1           0       16.185892   -0.125524    1.337093
    127          1           0       18.353606   -0.182211   -0.467804
    128          1           0       17.724604    1.434517   -1.081045
    129          1           0       18.732904    2.253574    1.136235
    130          1           0       18.592080    0.740302    1.837039
    131          1           0       20.420963    0.176937    0.107875
    132          1           0       20.234651    3.056280   -0.720650
    133          1           0       21.710521    2.126431   -1.145115
    134          1           0       19.959451    1.837769   -1.872961
    135          1           0       21.266762    0.932302    2.517815
    136          1           0       22.321083    1.697542    1.323754
    137          1           0       20.993346    2.518709    2.038670
 ---------------------------------------------------------------------

 SCF Done:  E(RCAM-B3LYP) =  -2932.50476438     A.U. after   16 cycles

 Excitation energies and oscillator strengths:

 Excited State   1:      Singlet-A      2.1304 eV  581.98 nm  f=0.0994  <S**2>=0.000
     240 -> 243       -0.34774
     241 -> 242        0.59858
 This state for optimization and/or second-order correction.
 Total Energy, E(TD-HF/TD-KS) =  -2932.42647458
 Copying the excited state density for this state as the 1-particle RhoCI density.

 The electronic state is 1-A.
 Alpha  occ. eigenvalues --  -46.84245 -19.26733 -19.26218 -19.21676 -19.21629
 Alpha  occ. eigenvalues --  -19.21601 -14.42358 -14.39215 -14.39176 -14.37473
 Alpha  occ. eigenvalues --  -10.39431 -10.39238 -10.36613 -10.33553 -10.31664
 Alpha  occ. eigenvalues --  -10.31623 -10.30637 -10.30536 -10.30269 -10.29382
 Alpha  occ. eigenvalues --  -10.29322 -10.29171 -10.28913 -10.28815 -10.28384
 Alpha  occ. eigenvalues --  -10.28210 -10.28077 -10.28068 -10.27857 -10.27845
 Alpha  occ. eigenvalues --  -10.27753 -10.27706 -10.27069 -10.27051 -10.27046
 Alpha  occ. eigenvalues --  -10.26968 -10.26883 -10.26785 -10.26781 -10.26774
 Alpha  occ. eigenvalues --  -10.26645 -10.26525 -10.26494 -10.26470 -10.26324
 Alpha  occ. eigenvalues --  -10.26103 -10.26090 -10.26051 -10.25979 -10.25875
 Alpha  occ. eigenvalues --  -10.25619 -10.25608 -10.25435 -10.25222 -10.25104
 Alpha  occ. eigenvalues --  -10.24943 -10.24853 -10.24622 -10.24597 -10.24552
 Alpha  occ. eigenvalues --  -10.24492 -10.24237 -10.24094 -10.23961 -10.23717
 Alpha  occ. eigenvalues --   -3.13290  -1.87996  -1.87509  -1.87492  -1.20231
 Alpha  occ. eigenvalues --   -1.17791  -1.11235  -1.10606  -1.09511  -1.06309
 Alpha  occ. eigenvalues --   -1.04490  -1.04292  -0.99972  -0.92845  -0.91982
 Alpha  occ. eigenvalues --   -0.91259  -0.90558  -0.90107  -0.89340  -0.89179
 Alpha  occ. eigenvalues --   -0.88515  -0.88310  -0.87651  -0.87576  -0.86793
 Alpha  occ. eigenvalues --   -0.85060  -0.84618  -0.84431  -0.83557  -0.82790
 Alpha  occ. eigenvalues --   -0.81756  -0.81532  -0.80074  -0.79929  -0.78480
 Alpha  occ. eigenvalues --   -0.76859  -0.76699  -0.76450  -0.75861  -0.75218
 Alpha  occ. eigenvalues --   -0.74482  -0.74407  -0.74258  -0.73560  -0.72800
 Alpha  occ. eigenvalues --   -0.71728  -0.70732  -0.69629  -0.69263  -0.68378
 Alpha  occ. eigenvalues --   -0.66691  -0.66468  -0.65674  -0.65459  -0.65229
 Alpha  occ. eigenvalues --   -0.64262  -0.64013  -0.63233  -0.62743  -0.62345
 Alpha  occ. eigenvalues --   -0.62176  -0.61755  -0.61185  -0.60273  -0.60202
 Alpha  occ. eigenvalues --   -0.59131  -0.58636  -0.58079  -0.57884  -0.56932
 Alpha  occ. eigenvalues --   -0.56770  -0.56340  -0.55454  -0.55254  -0.54946
 Alpha  occ. eigenvalues --   -0.54684  -0.54425  -0.53903  -0.53853  -0.53408
 Alpha  occ. eigenvalues --   -0.53365  -0.52903  -0.52219  -0.51974  -0.51754
 Alpha  occ. eigenvalues --   -0.51627  -0.51291  -0.51012  -0.50968  -0.50503
 Alpha  occ. eigenvalues --   -0.50458  -0.50408  -0.50099  -0.49833  -0.49584
 Alpha  occ. eigenvalues --   -0.49335  -0.49150  -0.48742  -0.48562  -0.48523
 Alpha  occ. eigenvalues --   -0.48162  -0.47979  -0.47830  -0.47545  -0.47276
 Alpha  occ. eigenvalues --   -0.47139  -0.46769  -0.46384  -0.46016  -0.45859
 Alpha  occ. eigenvalues --   -0.45762  -0.45656  -0.45469  -0.45409  -0.44909
 Alpha  occ. eigenvalues --   -0.44869  -0.44785  -0.44433  -0.44277  -0.44162
 Alpha  occ. eigenvalues --   -0.43957  -0.43668  -0.43589  -0.43446  -0.43275
 Alpha  occ. eigenvalues --   -0.42965  -0.42705  -0.42473  -0.42288  -0.42164
 Alpha  occ. eigenvalues --   -0.41896  -0.41768  -0.41589  -0.41291  -0.41239
 Alpha  occ. eigenvalues --   -0.40822  -0.40781  -0.40574  -0.40395  -0.40162
 Alpha  occ. eigenvalues --   -0.39612  -0.39545  -0.38970  -0.38799  -0.38782
 Alpha  occ. eigenvalues --   -0.38508  -0.38174  -0.37879  -0.37772  -0.37639
 Alpha  occ. eigenvalues --   -0.37340  -0.37265  -0.36990  -0.36771  -0.36514
 Alpha  occ. eigenvalues --   -0.36493  -0.36378  -0.36237  -0.36045  -0.35895
 Alpha  occ. eigenvalues --   -0.35597  -0.35510  -0.35161  -0.34815  -0.34109
 Alpha  occ. eigenvalues --   -0.33666  -0.33185  -0.32937  -0.31262  -0.30594
 Alpha  occ. eigenvalues --   -0.30105  -0.29701  -0.27431  -0.25355  -0.22837
 Alpha  occ. eigenvalues --   -0.21368
 Alpha virt. eigenvalues --   -0.05761  -0.04468   0.01027   0.03566   0.05263
 Alpha virt. eigenvalues --    0.05523   0.05985   0.06560   0.06824   0.07193
 Alpha virt. eigenvalues --    0.07830   0.09928   0.10858   0.11253   0.11522

 Mulliken charges:
               1
     1  Mg   0.814373
     2  C    0.024900
     3  C   -0.235024
     4  C   -0.141889
     5  C   -0.202768
     6  N   -0.629268
     7  C    0.339365
     8  C   -0.179249
     9  C   -0.152737
    10  C    0.329374
    11  C   -0.315950
    12  C   -0.168155
    13  C   -0.278993
    14  C    0.631408
    15  O   -0.436487
    16  O   -0.474632
    17  N   -0.721659
    18  C    0.389587
    19  C    0.007739
    20  C   -0.010718
    21  C    0.321200
    22  C   -0.383488
    23  C   -0.048594
    24  C   -0.220521
    25  N   -0.697427
    26  C    0.278348
    27  C    0.015574
    28  C    0.054738
    29  C    0.299490
    30  C   -0.377596
    31  C   -0.261908
    32  C   -0.316537
    33  N   -0.769052
    34  C    0.302499
    35  C   -0.038958
    36  C    0.090237
    37  C    0.364688
    38  C   -0.335929
    39  C    0.355761
    40  O   -0.457913
    41  C   -0.333730
    42  C    0.626670
    43  O   -0.474845
    44  O   -0.462918
    45  C   -0.071555
    46  C    0.018032
    47  C   -0.130687
    48  C    0.166945
    49  C   -0.386051
    50  C   -0.234051
    51  C   -0.190168
    52  C   -0.149246
    53  C   -0.026162
    54  C   -0.306837
    55  C   -0.199379
    56  C   -0.136030
    57  C   -0.181529
    58  C   -0.061823
    59  C   -0.304103
    60  C   -0.163891
    61  C   -0.167988
    62  C   -0.176857
    63  C   -0.064577
    64  C   -0.303019
    65  C   -0.320980
    66  H    0.083348
    67  H    0.071253
    68  H    0.083107
    69  H    0.114939
    70  H    0.111063
    71  H    0.118488
    72  H    0.113798
    73  H    0.113708
    74  H    0.119610
    75  H    0.108438
    76  H    0.132597
    77  H    0.153664
    78  H    0.134149
    79  H    0.084383
    80  H    0.108762
    81  H    0.102755
    82  H    0.090342
    83  H    0.110918
    84  H    0.103096
    85  H    0.109334
    86  H    0.094923
    87  H    0.114782
    88  H    0.104052
    89  H    0.102759
    90  H    0.085870
    91  H    0.113440
    92  H    0.130750
    93  H    0.108658
    94  H    0.124732
    95  H    0.160457
    96  H    0.128378
    97  H    0.120835
    98  H    0.122524
    99  H    0.079028
   100  H    0.114184
   101  H    0.085692
   102  H    0.109650
   103  H    0.123643
   104  H    0.123946
   105  H    0.088045
   106  H    0.080215
   107  H    0.093607
   108  H    0.077364
   109  H    0.100726
   110  H    0.107309
   111  H    0.098247
   112  H    0.109699
   113  H    0.097938
   114  H    0.069994
   115  H    0.081802
   116  H    0.055210
   117  H    0.101865
   118  H    0.054011
   119  H    0.078512
   120  H    0.089698
   121  H    0.079306
   122  H    0.075725
   123  H    0.101016
   124  H    0.101813
   125  H    0.090834
   126  H    0.087635
   127  H    0.093646
   128  H    0.087415
   129  H    0.094240
   130  H    0.075553
   131  H    0.082736
   132  H    0.119643
   133  H    0.080917
   134  H    0.086360
   135  H    0.097092
   136  H    0.100550
   137  H    0.116171
 Sum of Mulliken charges =   0.00000

 Dipole moment (field-independent basis, Debye):
    X=              2.3671    Y=              4.4885    Z=              0.6133  Tot=              5.1113
 Quadrupole moment (field-independent basis, Debye-Ang):
   XX=           -367.5069   YY=           -398.4739   ZZ=           -396.4764
   XY=            -10.4951   XZ=              7.2541   YZ=             -4.7092

 Normal termination of Gaussian 09 at Sat Jun 29 15:12:38 2019.
