 Gaussian 09, Revision D.01,
 Gaussian 09:  ES64L-G09RevD.01 24-Apr-2013

 -------------------------------------
 # td=(NStates=1) CAM-B3LYP/6-31G(d,p)
 -------------------------------------

 --
 TD
 --
 Symbolic Z-matrix:
 Charge =  0 Multiplicity = 1

                         Standard orientation:
 ---------------------------------------------------------------------
 Center     Atomic      Atomic             Coordinates (Angstroms)
 Number     Number       Type             X           Y           Z
 ---------------------------------------------------------------------
      1         12           0       -7.160234    0.629842    0.197560
      2          6           0       -4.839370   -1.924062    0.540882
      3          6           0       -4.875933    2.848887    1.233968
      4          6           0       -9.507596    3.030255   -0.264128
      5          6           0       -9.562426   -1.779650   -0.799953
      6          7           0       -5.143545    0.452334    0.742974
      7          6           0       -4.319902   -0.677306    0.779930
      8          6           0       -2.912884   -0.333534    1.248421
      9          6           0       -2.980444    1.183561    1.685031
     10          6           0       -4.342627    1.512105    1.110158
     11          6           0       -2.846163    1.425578    3.260528
     12          6           0       -1.950751   -0.540095    0.080592
     13          6           0       -0.454890   -0.464552    0.498112
     14          6           0        0.568547   -0.563647   -0.800280
     15          8           0        0.213189   -0.801498   -1.893303
     16          8           0        1.765593   -0.552394   -0.373375
     17          7           0       -7.226385    2.618228    0.362699
     18          6           0       -6.147968    3.326930    0.789891
     19          6           0       -6.539404    4.760227    0.825875
     20          6           0       -7.908343    4.806791    0.340573
     21          6           0       -8.305732    3.485715    0.049470
     22          6           0       -5.609924    5.860917    1.185968
     23          6           0       -8.699717    5.945747    0.321336
     24          6           0       -8.437441    7.265826   -0.017096
     25          7           0       -9.145714    0.690327   -0.388713
     26          6           0       -9.908263    1.739674   -0.567981
     27          6           0      -11.194573    1.412867   -1.051716
     28          6           0      -11.248789    0.056813   -1.181716
     29          6           0       -9.969328   -0.453564   -0.727771
     30          6           0      -12.353292    2.387709   -1.378064
     31          6           0      -12.384038   -0.806236   -1.755670
     32          6           0      -12.095222   -1.168197   -3.219597
     33          7           0       -7.271721   -1.419813   -0.070207
     34          6           0       -8.257675   -2.258375   -0.519290
     35          6           0       -7.807519   -3.667103   -0.404056
     36          6           0       -6.526633   -3.604863    0.004400
     37          6           0       -6.132527   -2.172453    0.205058
     38          6           0       -8.667332   -4.905484   -0.796493
     39          6           0       -5.320508   -4.373951    0.294660
     40          8           0       -5.071594   -5.599572    0.166967
     41          6           0       -4.231805   -3.317234    0.471708
     42          6           0       -3.435166   -3.683846    1.777631
     43          8           0       -3.723664   -3.144193    2.907415
     44          8           0       -2.588026   -4.653381    1.579249
     45          6           0       -1.971984   -5.232269    2.738371
     46          6           0        2.854325   -0.701527   -1.317765
     47          6           0        4.167816   -0.451907   -0.548206
     48          6           0        5.120205    0.292240   -0.938336
     49          6           0        5.195248    1.269281   -2.246935
     50          6           0        6.373419    0.542051   -0.154072
     51          6           0        7.543683   -0.327567   -0.839264
     52          6           0        8.950481   -0.187994   -0.112878
     53          6           0       10.158064   -0.641719   -0.837628
     54          6           0       10.049327   -2.074733   -1.397261
     55          6           0       11.418253   -0.412941    0.015518
     56          6           0       12.824991   -0.477675   -0.710097
     57          6           0       13.989759   -0.149605    0.200508
     58          6           0       15.433893   -0.230708   -0.434358
     59          6           0       15.820086   -1.657519   -0.732397
     60          6           0       16.336291    0.538984    0.486768
     61          6           0       17.769617    0.675341   -0.117361
     62          6           0       18.826942    1.355962    0.766759
     63          6           0       20.267726    1.298928    0.186107
     64          6           0       20.329347    2.153883   -1.107511
     65          6           0       21.184890    1.948484    1.203822
     66          1           0       -4.195966    3.631676    1.490549
     67          1           0      -10.217507    3.798661   -0.213214
     68          1           0      -10.351203   -2.509428   -1.060931
     69          1           0       -2.345696   -0.944975    1.988657
     70          1           0       -2.287855    1.666845    1.013279
     71          1           0       -1.700753    1.100751    3.330544
     72          1           0       -2.896192    2.410903    3.345163
     73          1           0       -3.506252    0.782850    3.821513
     74          1           0       -2.139526   -1.404643   -0.392830
     75          1           0       -2.218292    0.115265   -0.986294
     76          1           0       -0.341458    0.597419    0.986388
     77          1           0       -0.241908   -1.524465    1.192281
     78          1           0       -4.748896    6.197061    0.409509
     79          1           0       -6.098799    6.889633    1.464106
     80          1           0       -4.996107    5.341727    1.938089
     81          1           0       -9.716461    5.863710    0.335133
     82          1           0       -9.168806    8.026628    0.244167
     83          1           0       -7.499408    7.781700   -0.169122
     84          1           0      -12.089480    3.000134   -2.234739
     85          1           0      -13.091917    1.722010   -1.652496
     86          1           0      -12.970861    2.918055   -0.597114
     87          1           0      -12.375101   -1.615072   -1.218063
     88          1           0      -13.445589   -0.258073   -1.667858
     89          1           0      -12.746149   -1.739492   -3.660023
     90          1           0      -11.964359   -0.145504   -3.619800
     91          1           0      -11.052766   -1.758704   -3.231748
     92          1           0       -9.036796   -4.873153   -1.752321
     93          1           0       -7.999349   -5.893933   -0.456019
     94          1           0       -9.672596   -4.844874   -0.187486
     95          1           0       -3.440407   -3.400008   -0.321291
     96          1           0       -1.345870   -4.359725    2.960988
     97          1           0       -2.699844   -5.287860    3.471810
     98          1           0       -1.485588   -6.178277    2.534264
     99          1           0        2.850140   -1.645610   -1.803625
    100          1           0        2.815372    0.053128   -1.997877
    101          1           0        4.159169   -0.927337    0.462858
    102          1           0        4.176556    1.705307   -2.284421
    103          1           0        5.485104    2.205220   -1.857736
    104          1           0        5.805250    0.987172   -3.114246
    105          1           0        6.823524    1.574785   -0.171877
    106          1           0        6.297551    0.039827    0.869812
    107          1           0        7.449126   -1.380294   -0.936450
    108          1           0        7.706336    0.107270   -1.884753
    109          1           0        9.137244    0.919318    0.333330
    110          1           0        8.854158   -0.626308    0.969158
    111          1           0       10.119255    0.144331   -1.686849
    112          1           0        8.875625   -2.286590   -1.865760
    113          1           0       10.947332   -2.312561   -2.029411
    114          1           0       10.097309   -2.745427   -0.464881
    115          1           0       11.222009    0.565226    0.477063
    116          1           0       11.501640   -1.086658    0.843688
    117          1           0       12.998125   -1.541460   -1.071876
    118          1           0       12.503152    0.123520   -1.667339
    119          1           0       13.505955    0.813865    0.589671
    120          1           0       13.728203   -0.776925    1.190724
    121          1           0       15.278075    0.195250   -1.402630
    122          1           0       15.619048   -2.198846    0.048688
    123          1           0       15.219308   -2.300409   -1.597177
    124          1           0       17.076800   -1.838237   -0.952653
    125          1           0       15.881475    1.476286    0.997244
    126          1           0       16.481378    0.082978    1.405025
    127          1           0       18.151438   -0.148768   -0.707826
    128          1           0       17.691356    1.416268   -0.929634
    129          1           0       18.446294    2.280534    1.001701
    130          1           0       18.862333    0.952509    1.733634
    131          1           0       20.712709    0.321299   -0.253069
    132          1           0       20.119209    3.331657   -0.783634
    133          1           0       21.396711    2.120969   -1.328545
    134          1           0       19.562988    1.651443   -1.736738
    135          1           0       21.367517    1.551740    2.297570
    136          1           0       22.334189    1.909842    0.947421
    137          1           0       20.878737    2.934836    1.317746
 ---------------------------------------------------------------------

 SCF Done:  E(RCAM-B3LYP) =  -2932.60272311     A.U. after   18 cycles

 Excitation energies and oscillator strengths:

 Excited State   1:      Singlet-A      2.0476 eV  605.52 nm  f=0.2566  <S**2>=0.000
     240 -> 242       -0.11046
     240 -> 243        0.24031
     241 -> 242        0.64271
 This state for optimization and/or second-order correction.
 Total Energy, E(TD-HF/TD-KS) =  -2932.52747592
 Copying the excited state density for this state as the 1-particle RhoCI density.

 The electronic state is 1-A.
 Alpha  occ. eigenvalues --  -46.83719 -19.27434 -19.27347 -19.20704 -19.19877
 Alpha  occ. eigenvalues --  -19.19814 -14.42336 -14.39428 -14.38964 -14.38872
 Alpha  occ. eigenvalues --  -10.39443 -10.39256 -10.34948 -10.31900 -10.31637
 Alpha  occ. eigenvalues --  -10.31199 -10.31073 -10.30522 -10.30423 -10.28944
 Alpha  occ. eigenvalues --  -10.28923 -10.28781 -10.28496 -10.28466 -10.28247
 Alpha  occ. eigenvalues --  -10.28092 -10.27959 -10.27935 -10.27811 -10.27732
 Alpha  occ. eigenvalues --  -10.27723 -10.27697 -10.27582 -10.27569 -10.27380
 Alpha  occ. eigenvalues --  -10.26896 -10.26876 -10.26863 -10.26834 -10.26803
 Alpha  occ. eigenvalues --  -10.26780 -10.26776 -10.26724 -10.26684 -10.26670
 Alpha  occ. eigenvalues --  -10.26496 -10.26471 -10.26458 -10.26390 -10.26253
 Alpha  occ. eigenvalues --  -10.26153 -10.26144 -10.25949 -10.25883 -10.25684
 Alpha  occ. eigenvalues --  -10.25548 -10.25480 -10.25325 -10.25227 -10.25205
 Alpha  occ. eigenvalues --  -10.25201 -10.25114 -10.24819 -10.24791 -10.23800
 Alpha  occ. eigenvalues --   -3.12798  -1.87504  -1.87036  -1.86978  -1.21498
 Alpha  occ. eigenvalues --   -1.19325  -1.11352  -1.08450  -1.05869  -1.03713
 Alpha  occ. eigenvalues --   -1.03074  -1.02208  -1.01466  -0.92778  -0.91710
 Alpha  occ. eigenvalues --   -0.90950  -0.89984  -0.89790  -0.89574  -0.88935
 Alpha  occ. eigenvalues --   -0.88771  -0.87705  -0.87076  -0.86081  -0.85812
 Alpha  occ. eigenvalues --   -0.85010  -0.84155  -0.83682  -0.82936  -0.82734
 Alpha  occ. eigenvalues --   -0.82030  -0.81620  -0.80244  -0.79931  -0.78136
 Alpha  occ. eigenvalues --   -0.77941  -0.77046  -0.76763  -0.76155  -0.75783
 Alpha  occ. eigenvalues --   -0.74875  -0.74721  -0.74642  -0.73944  -0.72469
 Alpha  occ. eigenvalues --   -0.71978  -0.70327  -0.69896  -0.69191  -0.68249
 Alpha  occ. eigenvalues --   -0.67701  -0.67409  -0.65558  -0.65396  -0.65242
 Alpha  occ. eigenvalues --   -0.64309  -0.64010  -0.63762  -0.62455  -0.62432
 Alpha  occ. eigenvalues --   -0.61828  -0.61028  -0.60666  -0.59763  -0.59295
 Alpha  occ. eigenvalues --   -0.58581  -0.58139  -0.57895  -0.57798  -0.56737
 Alpha  occ. eigenvalues --   -0.56005  -0.55609  -0.55289  -0.55012  -0.54734
 Alpha  occ. eigenvalues --   -0.54177  -0.53855  -0.53643  -0.53141  -0.53065
 Alpha  occ. eigenvalues --   -0.52950  -0.52741  -0.52594  -0.52308  -0.52113
 Alpha  occ. eigenvalues --   -0.51733  -0.51460  -0.51347  -0.51043  -0.50760
 Alpha  occ. eigenvalues --   -0.50485  -0.50202  -0.49912  -0.49618  -0.49545
 Alpha  occ. eigenvalues --   -0.49234  -0.49138  -0.48971  -0.48733  -0.48360
 Alpha  occ. eigenvalues --   -0.48149  -0.48079  -0.47895  -0.47584  -0.47007
 Alpha  occ. eigenvalues --   -0.46844  -0.46690  -0.46603  -0.46480  -0.46085
 Alpha  occ. eigenvalues --   -0.45724  -0.45439  -0.45107  -0.44926  -0.44805
 Alpha  occ. eigenvalues --   -0.44347  -0.44323  -0.44093  -0.44057  -0.43988
 Alpha  occ. eigenvalues --   -0.43556  -0.43400  -0.43372  -0.43023  -0.42715
 Alpha  occ. eigenvalues --   -0.42540  -0.42296  -0.42260  -0.42205  -0.42031
 Alpha  occ. eigenvalues --   -0.41903  -0.41700  -0.41567  -0.41249  -0.41126
 Alpha  occ. eigenvalues --   -0.40904  -0.40668  -0.40608  -0.40286  -0.40187
 Alpha  occ. eigenvalues --   -0.40054  -0.39965  -0.39640  -0.39456  -0.39304
 Alpha  occ. eigenvalues --   -0.39210  -0.38952  -0.38648  -0.38096  -0.37833
 Alpha  occ. eigenvalues --   -0.37585  -0.37342  -0.36964  -0.36918  -0.36824
 Alpha  occ. eigenvalues --   -0.36213  -0.36073  -0.36009  -0.35923  -0.35177
 Alpha  occ. eigenvalues --   -0.35160  -0.34896  -0.34777  -0.33594  -0.33325
 Alpha  occ. eigenvalues --   -0.33035  -0.32499  -0.31840  -0.31697  -0.30947
 Alpha  occ. eigenvalues --   -0.30017  -0.29543  -0.28258  -0.26151  -0.23228
 Alpha  occ. eigenvalues --   -0.20822
 Alpha virt. eigenvalues --   -0.06160  -0.03225   0.00585   0.03177   0.05948
 Alpha virt. eigenvalues --    0.06226   0.06797   0.07014   0.07120   0.07405
 Alpha virt. eigenvalues --    0.08037   0.10377   0.10920   0.11166   0.11817

 Mulliken charges:
               1
     1  Mg   0.811150
     2  C    0.142017
     3  C   -0.211880
     4  C   -0.166446
     5  C   -0.174965
     6  N   -0.631501
     7  C    0.311990
     8  C   -0.150122
     9  C   -0.146381
    10  C    0.311134
    11  C   -0.279409
    12  C   -0.178518
    13  C   -0.261435
    14  C    0.572132
    15  O   -0.447370
    16  O   -0.427439
    17  N   -0.746057
    18  C    0.349966
    19  C    0.016519
    20  C    0.035401
    21  C    0.321533
    22  C   -0.370255
    23  C   -0.116583
    24  C   -0.251725
    25  N   -0.688860
    26  C    0.338284
    27  C   -0.003604
    28  C    0.013229
    29  C    0.259030
    30  C   -0.363437
    31  C   -0.225261
    32  C   -0.287515
    33  N   -0.714126
    34  C    0.259427
    35  C   -0.000738
    36  C    0.029051
    37  C    0.235986
    38  C   -0.361260
    39  C    0.389953
    40  O   -0.489760
    41  C   -0.336318
    42  C    0.593823
    43  O   -0.523493
    44  O   -0.421100
    45  C   -0.085429
    46  C    0.015743
    47  C   -0.169809
    48  C    0.136236
    49  C   -0.378347
    50  C   -0.225792
    51  C   -0.186084
    52  C   -0.180315
    53  C   -0.038045
    54  C   -0.294926
    55  C   -0.188632
    56  C   -0.178151
    57  C   -0.190403
    58  C   -0.046358
    59  C   -0.298143
    60  C   -0.179289
    61  C   -0.208535
    62  C   -0.165622
    63  C   -0.073370
    64  C   -0.281561
    65  C   -0.304218
    66  H    0.071740
    67  H    0.089038
    68  H    0.095371
    69  H    0.119551
    70  H    0.120556
    71  H    0.092898
    72  H    0.127652
    73  H    0.146463
    74  H    0.125680
    75  H    0.077803
    76  H    0.115070
    77  H    0.101664
    78  H    0.107166
    79  H    0.116802
    80  H    0.116901
    81  H    0.095425
    82  H    0.098988
    83  H    0.098252
    84  H    0.124377
    85  H    0.111971
    86  H    0.112358
    87  H    0.112138
    88  H    0.088060
    89  H    0.115732
    90  H    0.113291
    91  H    0.085392
    92  H    0.140981
    93  H    0.135194
    94  H    0.106077
    95  H    0.162685
    96  H    0.127081
    97  H    0.153654
    98  H    0.138840
    99  H    0.140475
   100  H    0.129732
   101  H    0.099058
   102  H    0.112877
   103  H    0.125002
   104  H    0.140321
   105  H    0.112127
   106  H    0.094624
   107  H    0.114552
   108  H    0.082262
   109  H    0.061257
   110  H    0.067967
   111  H    0.076053
   112  H    0.072995
   113  H    0.112853
   114  H    0.096764
   115  H    0.087509
   116  H    0.094069
   117  H    0.080076
   118  H    0.080112
   119  H    0.091219
   120  H    0.074842
   121  H    0.109429
   122  H    0.127788
   123  H    0.084594
   124  H    0.071517
   125  H    0.089818
   126  H    0.106699
   127  H    0.097781
   128  H    0.095810
   129  H    0.101445
   130  H    0.091374
   131  H    0.085459
   132  H    0.067484
   133  H    0.106533
   134  H    0.105936
   135  H    0.082761
   136  H    0.077687
   137  H    0.112266
 Sum of Mulliken charges =   0.00000

 Dipole moment (field-independent basis, Debye):
    X=              3.5730    Y=              3.5091    Z=              0.8094  Tot=              5.0730
 Quadrupole moment (field-independent basis, Debye-Ang):
   XX=           -352.4077   YY=           -393.7322   ZZ=           -403.7705
   XY=            -18.6356   XZ=             14.9976   YZ=              0.3785

 Normal termination of Gaussian 09 at Sat Jun 29 08:57:58 2019.
