 Gaussian 09, Revision D.01,
 Gaussian 09:  ES64L-G09RevD.01 24-Apr-2013

 -------------------------------------
 # td=(NStates=1) CAM-B3LYP/6-31G(d,p)
 -------------------------------------

 --
 TD
 --
 Symbolic Z-matrix:
 Charge =  0 Multiplicity = 1

                         Standard orientation:
 ---------------------------------------------------------------------
 Center     Atomic      Atomic             Coordinates (Angstroms)
 Number     Number       Type             X           Y           Z
 ---------------------------------------------------------------------
      1         12           0       -7.161115    0.603076    0.123737
      2          6           0       -4.907703   -1.960572    0.511327
      3          6           0       -4.810866    2.685313    1.340500
      4          6           0       -9.387145    3.071304   -0.175623
      5          6           0       -9.570776   -1.701412   -0.920426
      6          7           0       -5.128299    0.339249    0.687650
      7          6           0       -4.353330   -0.803957    0.831077
      8          6           0       -2.860273   -0.518451    1.172555
      9          6           0       -3.032863    1.024751    1.608692
     10          6           0       -4.366968    1.377487    1.165699
     11          6           0       -2.857953    1.104201    3.147809
     12          6           0       -1.962430   -0.582152   -0.084685
     13          6           0       -0.460841   -0.673619    0.353113
     14          6           0        0.505805   -0.679401   -0.728336
     15          8           0        0.253949   -0.853076   -1.850413
     16          8           0        1.805260   -0.499502   -0.217996
     17          7           0       -7.141908    2.622937    0.342459
     18          6           0       -6.095672    3.329108    0.884641
     19          6           0       -6.390346    4.731700    0.885664
     20          6           0       -7.674835    4.859496    0.476441
     21          6           0       -8.087282    3.527768    0.222722
     22          6           0       -5.519704    5.817434    1.552856
     23          6           0       -8.498633    6.059649    0.283857
     24          6           0       -8.249527    7.372578    0.015809
     25          7           0       -9.167483    0.655120   -0.439331
     26          6           0       -9.866320    1.807729   -0.502140
     27          6           0      -11.208803    1.518475   -0.910626
     28          6           0      -11.290370    0.181766   -1.038777
     29          6           0       -9.940595   -0.410315   -0.853675
     30          6           0      -12.304759    2.436277   -1.062532
     31          6           0      -12.365622   -0.687813   -1.760725
     32          6           0      -12.373885   -0.744572   -3.204738
     33          7           0       -7.269717   -1.373162   -0.183594
     34          6           0       -8.363646   -2.209375   -0.566743
     35          6           0       -8.000738   -3.514687   -0.578464
     36          6           0       -6.590950   -3.612705   -0.214973
     37          6           0       -6.285992   -2.178891    0.098543
     38          6           0       -8.726551   -4.759862   -0.897490
     39          6           0       -5.468055   -4.453156    0.149383
     40          8           0       -5.241961   -5.648994    0.177386
     41          6           0       -4.343620   -3.410079    0.541148
     42          6           0       -3.551914   -3.746309    1.791724
     43          8           0       -3.755714   -3.259835    2.902671
     44          8           0       -2.732446   -4.842429    1.560637
     45          6           0       -2.073145   -5.355040    2.752889
     46          6           0        2.804962   -0.558690   -1.295552
     47          6           0        4.034097   -0.386962   -0.615345
     48          6           0        5.073499    0.410612   -0.974395
     49          6           0        5.010992    1.303482   -2.213677
     50          6           0        6.450106    0.415327   -0.163840
     51          6           0        7.646717   -0.017647   -0.943966
     52          6           0        8.903735    0.029505   -0.079294
     53          6           0       10.161402   -0.403116   -0.930373
     54          6           0       10.157723   -1.910910   -1.352818
     55          6           0       11.414879   -0.265152   -0.002700
     56          6           0       12.814165   -0.455292   -0.621899
     57          6           0       13.989613   -0.051779    0.137690
     58          6           0       15.348779   -0.068235   -0.569023
     59          6           0       15.565501   -1.487312   -0.999089
     60          6           0       16.494575    0.364548    0.415655
     61          6           0       17.827424    0.534459   -0.119835
     62          6           0       18.935037    1.118579    0.852088
     63          6           0       20.355398    1.233445    0.268768
     64          6           0       20.506820    2.177297   -0.908235
     65          6           0       21.279947    1.567392    1.412963
     66          1           0       -4.112783    3.393837    1.603567
     67          1           0      -10.081927    3.947783   -0.365225
     68          1           0      -10.376076   -2.414803   -1.206706
     69          1           0       -2.743077   -1.249548    2.103975
     70          1           0       -2.297580    1.763752    0.931188
     71          1           0       -1.868032    0.794596    3.516071
     72          1           0       -2.798405    2.023487    3.545420
     73          1           0       -3.575323    0.512452    3.566529
     74          1           0       -2.460403   -1.453609   -0.597357
     75          1           0       -2.054935    0.269700   -0.724032
     76          1           0       -0.134399    0.232024    0.995909
     77          1           0       -0.144969   -1.459408    1.030329
     78          1           0       -4.758389    6.259991    0.805954
     79          1           0       -6.163045    6.626276    1.770488
     80          1           0       -4.974140    5.627882    2.373486
     81          1           0       -9.590042    5.818458    0.550102
     82          1           0       -8.776953    8.066591   -0.254424
     83          1           0       -7.198908    7.344526   -0.700712
     84          1           0      -11.988559    3.389208   -1.819695
     85          1           0      -13.137371    1.949077   -1.502648
     86          1           0      -12.485596    3.197430   -0.144823
     87          1           0      -12.305253   -1.817830   -1.501550
     88          1           0      -13.479145   -0.516981   -1.525151
     89          1           0      -13.156936   -1.539902   -3.533741
     90          1           0      -12.215218    0.320340   -3.724090
     91          1           0      -11.370744   -1.181421   -3.656585
     92          1           0       -9.103124   -4.742058   -2.022966
     93          1           0       -8.214755   -5.646130   -0.687901
     94          1           0       -9.630592   -4.568481   -0.213404
     95          1           0       -3.559109   -3.502651   -0.255460
     96          1           0       -1.653868   -4.533649    3.307420
     97          1           0       -2.941822   -5.637447    3.376659
     98          1           0       -1.236907   -6.079865    2.623850
     99          1           0        2.700854   -1.592926   -1.659363
    100          1           0        2.720378    0.261367   -1.952810
    101          1           0        4.210532   -0.802438    0.463534
    102          1           0        4.071065    1.482166   -2.627595
    103          1           0        5.656329    2.225418   -1.981367
    104          1           0        5.647373    0.915637   -3.063530
    105          1           0        6.834182    1.433085    0.123326
    106          1           0        6.407248    0.005032    0.842469
    107          1           0        7.494322   -1.109425   -1.334972
    108          1           0        7.745043    0.765444   -1.710710
    109          1           0        9.252856    1.075967    0.347183
    110          1           0        8.848153   -0.802098    0.750791
    111          1           0       10.443341    0.010271   -1.932752
    112          1           0        9.397330   -1.968385   -1.987442
    113          1           0       11.165054   -2.169054   -1.869287
    114          1           0       10.080316   -2.467776   -0.360476
    115          1           0       11.197321    0.713269    0.577292
    116          1           0       11.662107   -0.969118    0.867431
    117          1           0       12.724652   -1.482688   -0.983557
    118          1           0       12.681026    0.255045   -1.502303
    119          1           0       13.790811    1.023874    0.320856
    120          1           0       14.126878   -0.842431    0.985888
    121          1           0       15.422691    0.755520   -1.333099
    122          1           0       15.423473   -2.333720   -0.051426
    123          1           0       14.683709   -1.647695   -1.774572
    124          1           0       16.508815   -1.462082   -1.537506
    125          1           0       16.162259    1.297091    0.883033
    126          1           0       16.613364   -0.291037    1.378238
    127          1           0       18.527790   -0.310437   -0.590281
    128          1           0       17.753110    1.188080   -0.997092
    129          1           0       18.719655    2.142755    1.270338
    130          1           0       19.026548    0.493587    1.593533
    131          1           0       20.528129    0.129804   -0.123080
    132          1           0       20.304639    3.292187   -0.585191
    133          1           0       21.312840    2.020322   -1.545710
    134          1           0       19.722498    1.929843   -1.754254
    135          1           0       21.189621    0.687632    2.263510
    136          1           0       22.350649    1.474920    1.030342
    137          1           0       21.099558    2.650810    1.481003
 ---------------------------------------------------------------------

 SCF Done:  E(RCAM-B3LYP) =  -2932.62079671     A.U. after   18 cycles

 Excitation energies and oscillator strengths:

 Excited State   1:      Singlet-A      1.9628 eV  631.68 nm  f=0.2773  <S**2>=0.000
     240 -> 243       -0.19345
     241 -> 242        0.67235
 This state for optimization and/or second-order correction.
 Total Energy, E(TD-HF/TD-KS) =  -2932.54866626
 Copying the excited state density for this state as the 1-particle RhoCI density.

 The electronic state is 1-A.
 Alpha  occ. eigenvalues --  -46.84859 -19.25792 -19.24653 -19.21349 -19.21071
 Alpha  occ. eigenvalues --  -19.19631 -14.41697 -14.40156 -14.39793 -14.39650
 Alpha  occ. eigenvalues --  -10.39339 -10.38163 -10.35011 -10.31164 -10.30860
 Alpha  occ. eigenvalues --  -10.30800 -10.30783 -10.30018 -10.29957 -10.29700
 Alpha  occ. eigenvalues --  -10.29550 -10.29453 -10.29030 -10.28836 -10.28799
 Alpha  occ. eigenvalues --  -10.28369 -10.28177 -10.28127 -10.28036 -10.27980
 Alpha  occ. eigenvalues --  -10.27966 -10.27934 -10.27873 -10.27859 -10.27835
 Alpha  occ. eigenvalues --  -10.27832 -10.27788 -10.27689 -10.27216 -10.26981
 Alpha  occ. eigenvalues --  -10.26942 -10.26816 -10.26637 -10.26507 -10.26398
 Alpha  occ. eigenvalues --  -10.26320 -10.26293 -10.26281 -10.26241 -10.26136
 Alpha  occ. eigenvalues --  -10.26078 -10.26048 -10.25827 -10.25750 -10.25655
 Alpha  occ. eigenvalues --  -10.25510 -10.25469 -10.25408 -10.25360 -10.25345
 Alpha  occ. eigenvalues --  -10.25098 -10.24707 -10.24460 -10.24353 -10.23785
 Alpha  occ. eigenvalues --   -3.13905  -1.88614  -1.88120  -1.88108  -1.18085
 Alpha  occ. eigenvalues --   -1.16216  -1.10206  -1.09781  -1.08123  -1.06388
 Alpha  occ. eigenvalues --   -1.04565  -1.03767  -1.02984  -0.91947  -0.91282
 Alpha  occ. eigenvalues --   -0.90790  -0.90189  -0.89867  -0.89479  -0.89302
 Alpha  occ. eigenvalues --   -0.89070  -0.88700  -0.88094  -0.87948  -0.86550
 Alpha  occ. eigenvalues --   -0.85804  -0.84701  -0.84289  -0.83806  -0.83256
 Alpha  occ. eigenvalues --   -0.81649  -0.80990  -0.80686  -0.80341  -0.79061
 Alpha  occ. eigenvalues --   -0.78792  -0.77485  -0.76021  -0.75863  -0.75717
 Alpha  occ. eigenvalues --   -0.75378  -0.74599  -0.74375  -0.74125  -0.73131
 Alpha  occ. eigenvalues --   -0.71958  -0.70866  -0.69773  -0.68486  -0.68147
 Alpha  occ. eigenvalues --   -0.67645  -0.65707  -0.65419  -0.65208  -0.64003
 Alpha  occ. eigenvalues --   -0.63414  -0.62428  -0.62212  -0.62110  -0.61853
 Alpha  occ. eigenvalues --   -0.61479  -0.60816  -0.60161  -0.59792  -0.59287
 Alpha  occ. eigenvalues --   -0.58686  -0.57929  -0.57629  -0.57369  -0.56492
 Alpha  occ. eigenvalues --   -0.56139  -0.55883  -0.55660  -0.55194  -0.55163
 Alpha  occ. eigenvalues --   -0.54795  -0.54388  -0.54140  -0.53942  -0.53750
 Alpha  occ. eigenvalues --   -0.53196  -0.53014  -0.52718  -0.52080  -0.52037
 Alpha  occ. eigenvalues --   -0.51492  -0.51160  -0.50989  -0.50950  -0.50800
 Alpha  occ. eigenvalues --   -0.50726  -0.50426  -0.50131  -0.50006  -0.49707
 Alpha  occ. eigenvalues --   -0.49457  -0.49323  -0.48767  -0.48686  -0.48544
 Alpha  occ. eigenvalues --   -0.48402  -0.48123  -0.47915  -0.47490  -0.47281
 Alpha  occ. eigenvalues --   -0.47114  -0.47048  -0.46891  -0.46412  -0.46167
 Alpha  occ. eigenvalues --   -0.46069  -0.46040  -0.45638  -0.45592  -0.45317
 Alpha  occ. eigenvalues --   -0.45134  -0.44991  -0.44914  -0.44786  -0.44675
 Alpha  occ. eigenvalues --   -0.44405  -0.44008  -0.43822  -0.43663  -0.43133
 Alpha  occ. eigenvalues --   -0.43036  -0.42830  -0.42665  -0.42457  -0.42245
 Alpha  occ. eigenvalues --   -0.42052  -0.41699  -0.41600  -0.41520  -0.41510
 Alpha  occ. eigenvalues --   -0.41193  -0.40593  -0.40491  -0.40304  -0.39914
 Alpha  occ. eigenvalues --   -0.39759  -0.39737  -0.39432  -0.39134  -0.38839
 Alpha  occ. eigenvalues --   -0.38701  -0.38319  -0.38187  -0.37889  -0.37748
 Alpha  occ. eigenvalues --   -0.37593  -0.37092  -0.36771  -0.36608  -0.36370
 Alpha  occ. eigenvalues --   -0.36119  -0.36039  -0.35931  -0.35423  -0.35354
 Alpha  occ. eigenvalues --   -0.35300  -0.35202  -0.33955  -0.33709  -0.33599
 Alpha  occ. eigenvalues --   -0.33401  -0.32842  -0.32323  -0.31486  -0.29877
 Alpha  occ. eigenvalues --   -0.29367  -0.29136  -0.28859  -0.28434  -0.23429
 Alpha  occ. eigenvalues --   -0.21992
 Alpha virt. eigenvalues --   -0.07868  -0.02643   0.01516   0.02922   0.05202
 Alpha virt. eigenvalues --    0.05729   0.06162   0.06229   0.06469   0.07642
 Alpha virt. eigenvalues --    0.08313   0.10200   0.10786   0.11195   0.11836

 Mulliken charges:
               1
     1  Mg   0.820281
     2  C    0.060822
     3  C   -0.194930
     4  C   -0.203577
     5  C   -0.162370
     6  N   -0.635270
     7  C    0.255203
     8  C   -0.152515
     9  C   -0.171945
    10  C    0.388081
    11  C   -0.300971
    12  C   -0.154131
    13  C   -0.279021
    14  C    0.615488
    15  O   -0.438498
    16  O   -0.532591
    17  N   -0.686463
    18  C    0.267081
    19  C   -0.019676
    20  C    0.070598
    21  C    0.310544
    22  C   -0.366710
    23  C   -0.090989
    24  C   -0.207459
    25  N   -0.711391
    26  C    0.349140
    27  C    0.089303
    28  C   -0.012033
    29  C    0.289662
    30  C   -0.378712
    31  C   -0.236860
    32  C   -0.281269
    33  N   -0.724106
    34  C    0.299981
    35  C    0.019206
    36  C   -0.033650
    37  C    0.287959
    38  C   -0.353880
    39  C    0.384621
    40  O   -0.468728
    41  C   -0.318768
    42  C    0.613483
    43  O   -0.485188
    44  O   -0.465708
    45  C   -0.086626
    46  C    0.042903
    47  C   -0.132563
    48  C    0.114028
    49  C   -0.381982
    50  C   -0.231383
    51  C   -0.162903
    52  C   -0.171112
    53  C   -0.081220
    54  C   -0.295664
    55  C   -0.166813
    56  C   -0.194003
    57  C   -0.142690
    58  C   -0.067533
    59  C   -0.280766
    60  C   -0.164590
    61  C   -0.173556
    62  C   -0.146476
    63  C   -0.072095
    64  C   -0.302513
    65  C   -0.288388
    66  H    0.070528
    67  H    0.079829
    68  H    0.104144
    69  H    0.140666
    70  H    0.087416
    71  H    0.103644
    72  H    0.115262
    73  H    0.136140
    74  H    0.117256
    75  H    0.127990
    76  H    0.132778
    77  H    0.150578
    78  H    0.107151
    79  H    0.132638
    80  H    0.131981
    81  H    0.087170
    82  H    0.105366
    83  H    0.064786
    84  H    0.082354
    85  H    0.125369
    86  H    0.112649
    87  H    0.089518
    88  H    0.098833
    89  H    0.102924
    90  H    0.097761
    91  H    0.084519
    92  H    0.111749
    93  H    0.156029
    94  H    0.112984
    95  H    0.154927
    96  H    0.125934
    97  H    0.137185
    98  H    0.129213
    99  H    0.133650
   100  H    0.118021
   101  H    0.088471
   102  H    0.122828
   103  H    0.108817
   104  H    0.117592
   105  H    0.088605
   106  H    0.099290
   107  H    0.097513
   108  H    0.102308
   109  H    0.091427
   110  H    0.095801
   111  H    0.091199
   112  H    0.107419
   113  H    0.091989
   114  H    0.093952
   115  H    0.057059
   116  H    0.074509
   117  H    0.101364
   118  H    0.070220
   119  H    0.089126
   120  H    0.077779
   121  H    0.085584
   122  H    0.078152
   123  H    0.090512
   124  H    0.107885
   125  H    0.093644
   126  H    0.067263
   127  H    0.071342
   128  H    0.086893
   129  H    0.070697
   130  H    0.101819
   131  H    0.059010
   132  H    0.087345
   133  H    0.117776
   134  H    0.083851
   135  H    0.091877
   136  H    0.094255
   137  H    0.107784
 Sum of Mulliken charges =   0.00000

 Dipole moment (field-independent basis, Debye):
    X=              0.6825    Y=              5.3028    Z=             -0.1419  Tot=              5.3484
 Quadrupole moment (field-independent basis, Debye-Ang):
   XX=           -346.4827   YY=           -400.8639   ZZ=           -399.6950
   XY=            -20.0822   XZ=              4.9614   YZ=             -3.3989

 Normal termination of Gaussian 09 at Fri Jun 28 15:12:11 2019.
