 Gaussian 09, Revision D.01,
 Gaussian 09:  ES64L-G09RevD.01 24-Apr-2013

 -------------------------------------
 # td=(NStates=1) CAM-B3LYP/6-31G(d,p)
 -------------------------------------

 --
 TD
 --
 Symbolic Z-matrix:
 Charge =  0 Multiplicity = 1

                         Standard orientation:
 ---------------------------------------------------------------------
 Center     Atomic      Atomic             Coordinates (Angstroms)
 Number     Number       Type             X           Y           Z
 ---------------------------------------------------------------------
      1         12           0       -7.104370    0.545805    0.080927
      2          6           0       -4.914313   -2.009739    0.470920
      3          6           0       -4.823105    2.748837    1.254102
      4          6           0       -9.403382    3.172674   -0.297689
      5          6           0       -9.560309   -1.651261   -0.968196
      6          7           0       -5.059582    0.365462    0.753020
      7          6           0       -4.263003   -0.684543    0.749171
      8          6           0       -2.938725   -0.382217    1.283519
      9          6           0       -3.035018    1.016026    1.751743
     10          6           0       -4.409573    1.461111    1.162527
     11          6           0       -2.993933    1.175209    3.286199
     12          6           0       -1.953016   -0.621405    0.146552
     13          6           0       -0.480019   -0.463238    0.538746
     14          6           0        0.585609   -0.558138   -0.587934
     15          8           0        0.301556   -0.802244   -1.740652
     16          8           0        1.781313   -0.387586   -0.190525
     17          7           0       -7.069129    2.563386    0.431125
     18          6           0       -5.998588    3.344338    0.869931
     19          6           0       -6.424138    4.759719    0.980334
     20          6           0       -7.741729    4.820390    0.556854
     21          6           0       -8.135307    3.494791    0.217280
     22          6           0       -5.475370    5.907853    1.386983
     23          6           0       -8.512475    6.016595    0.450560
     24          6           0       -8.121772    7.274161    0.251727
     25          7           0       -9.070352    0.712458   -0.553208
     26          6           0       -9.843689    1.831409   -0.698314
     27          6           0      -11.122773    1.600950   -1.247873
     28          6           0      -11.207060    0.175002   -1.248976
     29          6           0       -9.949658   -0.316587   -0.876739
     30          6           0      -12.267419    2.505916   -1.482776
     31          6           0      -12.288249   -0.593047   -1.873892
     32          6           0      -12.198935   -1.112784   -3.387649
     33          7           0       -7.203978   -1.394553   -0.262376
     34          6           0       -8.310868   -2.205633   -0.570089
     35          6           0       -8.008681   -3.649366   -0.458014
     36          6           0       -6.562428   -3.596217   -0.151782
     37          6           0       -6.159184   -2.227472   -0.062822
     38          6           0       -8.701430   -4.860195   -0.800703
     39          6           0       -5.432598   -4.418207    0.174182
     40          8           0       -5.389702   -5.587253    0.160438
     41          6           0       -4.265320   -3.388793    0.481731
     42          6           0       -3.608245   -3.787438    1.869874
     43          8           0       -3.771551   -3.215136    2.949287
     44          8           0       -2.771551   -4.819998    1.727144
     45          6           0       -2.220504   -5.325475    2.932626
     46          6           0        2.768529   -0.573100   -1.188447
     47          6           0        4.115807   -0.385127   -0.478409
     48          6           0        5.060912    0.349332   -0.948638
     49          6           0        4.916998    1.299398   -2.182467
     50          6           0        6.400022    0.452622   -0.146460
     51          6           0        7.600541   -0.051465   -0.961502
     52          6           0        8.966037    0.059906   -0.232188
     53          6           0       10.230724   -0.492633   -0.940946
     54          6           0       10.046007   -1.911196   -1.386764
     55          6           0       11.424886   -0.262253   -0.075805
     56          6           0       12.845674   -0.416923   -0.660116
     57          6           0       14.012795   -0.188294    0.291681
     58          6           0       15.405010   -0.236619   -0.501614
     59          6           0       15.637938   -1.745645   -0.945494
     60          6           0       16.507703    0.318669    0.469402
     61          6           0       17.835025    0.507012   -0.265693
     62          6           0       18.886898    1.148737    0.773179
     63          6           0       20.266208    1.261759    0.227638
     64          6           0       20.259599    2.150253   -1.052736
     65          6           0       21.202628    1.872946    1.221229
     66          1           0       -4.221673    3.517166    2.059824
     67          1           0      -10.269483    3.787158   -0.534950
     68          1           0      -10.352284   -2.371870   -1.213097
     69          1           0       -2.488806   -0.950337    1.983333
     70          1           0       -2.327085    1.633380    1.253595
     71          1           0       -2.022419    0.776329    3.731287
     72          1           0       -3.190277    2.286426    3.649566
     73          1           0       -3.822742    0.704238    3.620489
     74          1           0       -2.014395   -1.523091   -0.370487
     75          1           0       -2.201094    0.061961   -0.540774
     76          1           0       -0.334508    0.478456    1.029314
     77          1           0       -0.303055   -1.146826    1.260805
     78          1           0       -4.860032    6.114872    0.421983
     79          1           0       -6.144519    6.847865    1.618393
     80          1           0       -4.874842    5.466471    2.171835
     81          1           0       -9.494479    5.894350    0.483800
     82          1           0       -8.752572    8.033225    0.302976
     83          1           0       -7.003335    7.286293    0.043867
     84          1           0      -12.249371    3.051947   -2.690750
     85          1           0      -13.277946    1.856202   -1.456754
     86          1           0      -12.152890    3.225800   -0.662776
     87          1           0      -12.647760   -1.493479   -1.109168
     88          1           0      -13.256862   -0.045597   -1.780169
     89          1           0      -13.102853   -1.671869   -3.578815
     90          1           0      -11.979028   -0.376450   -4.077673
     91          1           0      -11.336313   -1.942954   -3.264190
     92          1           0       -8.801448   -5.152933   -1.949905
     93          1           0       -7.942639   -5.715692   -0.208256
     94          1           0       -9.534247   -4.939137   -0.162968
     95          1           0       -3.328191   -3.448062   -0.116559
     96          1           0       -1.572467   -4.553409    3.269817
     97          1           0       -2.787811   -5.723162    3.723466
     98          1           0       -1.432959   -6.216459    2.783261
     99          1           0        2.576809   -1.599549   -1.877617
    100          1           0        2.436103    0.331938   -1.831896
    101          1           0        4.437128   -1.037944    0.266444
    102          1           0        3.862662    1.372812   -2.552798
    103          1           0        5.487425    2.217929   -2.030290
    104          1           0        5.397485    0.828144   -3.143916
    105          1           0        6.538379    1.475239    0.296553
    106          1           0        6.399824   -0.105839    0.733594
    107          1           0        7.356928   -1.193297   -1.181667
    108          1           0        7.605976    0.443699   -1.910751
    109          1           0        8.972145    1.184493    0.131829
    110          1           0        8.720630   -0.541524    0.709326
    111          1           0       10.461543    0.251435   -1.942531
    112          1           0        9.222228   -2.197241   -2.066130
    113          1           0       10.920062   -2.388871   -1.853384
    114          1           0        9.735611   -2.554526   -0.502844
    115          1           0       11.396826    0.782094    0.454543
    116          1           0       11.319277   -0.997708    0.733633
    117          1           0       13.122114   -1.328462   -1.250437
    118          1           0       12.957433    0.534626   -1.338658
    119          1           0       14.045315    0.661604    0.831052
    120          1           0       13.750542   -0.975116    0.953605
    121          1           0       15.405575    0.378554   -1.436014
    122          1           0       15.782413   -2.078503    0.069726
    123          1           0       14.767042   -1.939782   -1.705365
    124          1           0       16.494665   -1.792648   -1.424749
    125          1           0       16.034408    1.167008    1.149551
    126          1           0       16.598442   -0.536194    1.325216
    127          1           0       18.281022   -0.561495   -0.323900
    128          1           0       17.617280    1.196277   -1.240106
    129          1           0       18.598249    2.187161    0.991286
    130          1           0       18.691084    0.421602    1.600952
    131          1           0       20.606912    0.184148   -0.012109
    132          1           0       20.164119    3.177482   -1.024215
    133          1           0       21.260760    2.273561   -1.458915
    134          1           0       19.587778    1.657817   -1.745045
    135          1           0       21.436078    1.066851    2.186090
    136          1           0       22.229185    2.031940    0.705314
    137          1           0       20.807734    2.808640    1.519943
 ---------------------------------------------------------------------

 SCF Done:  E(RCAM-B3LYP) =  -2932.64185735     A.U. after   18 cycles

 Excitation energies and oscillator strengths:

 Excited State   1:      Singlet-A      2.0472 eV  605.63 nm  f=0.1757  <S**2>=0.000
     240 -> 242       -0.15053
     240 -> 243       -0.29190
     241 -> 242        0.60593
     241 -> 243       -0.13929
 This state for optimization and/or second-order correction.
 Total Energy, E(TD-HF/TD-KS) =  -2932.56662474
 Copying the excited state density for this state as the 1-particle RhoCI density.

 The electronic state is 1-A.
 Alpha  occ. eigenvalues --  -46.84140 -19.27236 -19.26978 -19.20337 -19.20156
 Alpha  occ. eigenvalues --  -19.19744 -14.42145 -14.39939 -14.38996 -14.38640
 Alpha  occ. eigenvalues --  -10.39243 -10.38647 -10.34328 -10.33988 -10.31765
 Alpha  occ. eigenvalues --  -10.31309 -10.30634 -10.30202 -10.29888 -10.29683
 Alpha  occ. eigenvalues --  -10.29186 -10.28991 -10.28663 -10.28575 -10.28349
 Alpha  occ. eigenvalues --  -10.28044 -10.27838 -10.27718 -10.27704 -10.27662
 Alpha  occ. eigenvalues --  -10.27561 -10.27537 -10.27508 -10.27486 -10.27411
 Alpha  occ. eigenvalues --  -10.27224 -10.27121 -10.27046 -10.26982 -10.26975
 Alpha  occ. eigenvalues --  -10.26914 -10.26545 -10.26386 -10.26336 -10.26319
 Alpha  occ. eigenvalues --  -10.26148 -10.26144 -10.26101 -10.26081 -10.25979
 Alpha  occ. eigenvalues --  -10.25931 -10.25881 -10.25820 -10.25619 -10.25609
 Alpha  occ. eigenvalues --  -10.25500 -10.25404 -10.25325 -10.25238 -10.25131
 Alpha  occ. eigenvalues --  -10.24909 -10.24797 -10.24042 -10.23629 -10.23502
 Alpha  occ. eigenvalues --   -3.13190  -1.87894  -1.87421  -1.87382  -1.21978
 Alpha  occ. eigenvalues --   -1.18659  -1.13504  -1.09166  -1.08034  -1.06565
 Alpha  occ. eigenvalues --   -1.02930  -1.02200  -1.01453  -0.92172  -0.91806
 Alpha  occ. eigenvalues --   -0.91282  -0.90405  -0.90085  -0.89859  -0.88430
 Alpha  occ. eigenvalues --   -0.88350  -0.87784  -0.87332  -0.86955  -0.86255
 Alpha  occ. eigenvalues --   -0.85057  -0.84196  -0.83382  -0.83046  -0.82453
 Alpha  occ. eigenvalues --   -0.81450  -0.81147  -0.80306  -0.79774  -0.78243
 Alpha  occ. eigenvalues --   -0.78065  -0.76803  -0.76472  -0.76027  -0.75827
 Alpha  occ. eigenvalues --   -0.75728  -0.74746  -0.74535  -0.73965  -0.71876
 Alpha  occ. eigenvalues --   -0.71620  -0.71071  -0.69658  -0.69067  -0.68347
 Alpha  occ. eigenvalues --   -0.67222  -0.66506  -0.66138  -0.65226  -0.64265
 Alpha  occ. eigenvalues --   -0.63926  -0.63054  -0.62541  -0.62168  -0.61892
 Alpha  occ. eigenvalues --   -0.61751  -0.61336  -0.60261  -0.59916  -0.59711
 Alpha  occ. eigenvalues --   -0.58489  -0.58103  -0.57702  -0.57232  -0.56442
 Alpha  occ. eigenvalues --   -0.56163  -0.55981  -0.55409  -0.55181  -0.54788
 Alpha  occ. eigenvalues --   -0.54704  -0.54643  -0.54328  -0.54048  -0.53425
 Alpha  occ. eigenvalues --   -0.52771  -0.52680  -0.52636  -0.52164  -0.51816
 Alpha  occ. eigenvalues --   -0.51554  -0.51215  -0.50918  -0.50816  -0.50645
 Alpha  occ. eigenvalues --   -0.50329  -0.50177  -0.49833  -0.49566  -0.49341
 Alpha  occ. eigenvalues --   -0.49048  -0.48963  -0.48908  -0.48685  -0.48641
 Alpha  occ. eigenvalues --   -0.48170  -0.47972  -0.47875  -0.47821  -0.47577
 Alpha  occ. eigenvalues --   -0.47433  -0.46967  -0.46343  -0.45957  -0.45834
 Alpha  occ. eigenvalues --   -0.45563  -0.45364  -0.45257  -0.45001  -0.44547
 Alpha  occ. eigenvalues --   -0.44486  -0.44334  -0.44143  -0.43876  -0.43838
 Alpha  occ. eigenvalues --   -0.43774  -0.43529  -0.43489  -0.43315  -0.43112
 Alpha  occ. eigenvalues --   -0.43012  -0.42791  -0.42654  -0.42514  -0.42310
 Alpha  occ. eigenvalues --   -0.42001  -0.41733  -0.41585  -0.41408  -0.41216
 Alpha  occ. eigenvalues --   -0.40980  -0.40652  -0.40623  -0.40565  -0.40402
 Alpha  occ. eigenvalues --   -0.40079  -0.40014  -0.39708  -0.39353  -0.39285
 Alpha  occ. eigenvalues --   -0.39053  -0.38763  -0.38611  -0.38290  -0.37795
 Alpha  occ. eigenvalues --   -0.37723  -0.37206  -0.37106  -0.36846  -0.36555
 Alpha  occ. eigenvalues --   -0.36084  -0.36062  -0.35942  -0.35924  -0.35892
 Alpha  occ. eigenvalues --   -0.35349  -0.34857  -0.34625  -0.33854  -0.33559
 Alpha  occ. eigenvalues --   -0.33318  -0.33007  -0.31943  -0.31099  -0.30323
 Alpha  occ. eigenvalues --   -0.29784  -0.28715  -0.27660  -0.27068  -0.22941
 Alpha  occ. eigenvalues --   -0.20983
 Alpha virt. eigenvalues --   -0.06168  -0.04076   0.01115   0.04545   0.05823
 Alpha virt. eigenvalues --    0.06633   0.06718   0.06848   0.07183   0.07780
 Alpha virt. eigenvalues --    0.08173   0.09842   0.10827   0.11037   0.11371

 Mulliken charges:
               1
     1  Mg   0.820367
     2  C    0.066825
     3  C   -0.211151
     4  C   -0.164192
     5  C   -0.169863
     6  N   -0.600725
     7  C    0.317516
     8  C   -0.151942
     9  C   -0.137956
    10  C    0.309944
    11  C   -0.299133
    12  C   -0.184675
    13  C   -0.284078
    14  C    0.584307
    15  O   -0.494033
    16  O   -0.413322
    17  N   -0.696425
    18  C    0.319940
    19  C   -0.023118
    20  C    0.041010
    21  C    0.291462
    22  C   -0.353295
    23  C   -0.054378
    24  C   -0.235510
    25  N   -0.687704
    26  C    0.272365
    27  C    0.043295
    28  C    0.025544
    29  C    0.308941
    30  C   -0.353790
    31  C   -0.265230
    32  C   -0.288077
    33  N   -0.725039
    34  C    0.246285
    35  C    0.065650
    36  C   -0.029386
    37  C    0.283506
    38  C   -0.391211
    39  C    0.376689
    40  O   -0.431275
    41  C   -0.339676
    42  C    0.594358
    43  O   -0.483260
    44  O   -0.430484
    45  C   -0.083563
    46  C   -0.005979
    47  C   -0.127709
    48  C    0.136640
    49  C   -0.364940
    50  C   -0.237046
    51  C   -0.175853
    52  C   -0.167648
    53  C   -0.022980
    54  C   -0.321990
    55  C   -0.159747
    56  C   -0.185090
    57  C   -0.164763
    58  C   -0.089044
    59  C   -0.295529
    60  C   -0.176331
    61  C   -0.186818
    62  C   -0.145863
    63  C   -0.052029
    64  C   -0.323800
    65  C   -0.279086
    66  H    0.070465
    67  H    0.088699
    68  H    0.096659
    69  H    0.120511
    70  H    0.112866
    71  H    0.105773
    72  H    0.090622
    73  H    0.142714
    74  H    0.124980
    75  H    0.119603
    76  H    0.125337
    77  H    0.134253
    78  H    0.125364
    79  H    0.121378
    80  H    0.117104
    81  H    0.078553
    82  H    0.101541
    83  H    0.098843
    84  H    0.080571
    85  H    0.111999
    86  H    0.122647
    87  H    0.072491
    88  H    0.091180
    89  H    0.115379
    90  H    0.127716
    91  H    0.088631
    92  H    0.136432
    93  H    0.125293
    94  H    0.135306
    95  H    0.154769
    96  H    0.124060
    97  H    0.144334
    98  H    0.099178
    99  H    0.127136
   100  H    0.122485
   101  H    0.093860
   102  H    0.114300
   103  H    0.122064
   104  H    0.109376
   105  H    0.095793
   106  H    0.103274
   107  H    0.077256
   108  H    0.101000
   109  H    0.080132
   110  H    0.081414
   111  H    0.047367
   112  H    0.111943
   113  H    0.108656
   114  H    0.091849
   115  H    0.084930
   116  H    0.081765
   117  H    0.090351
   118  H    0.069711
   119  H    0.090470
   120  H    0.093978
   121  H    0.080003
   122  H    0.110394
   123  H    0.096978
   124  H    0.110212
   125  H    0.083338
   126  H    0.061683
   127  H    0.101711
   128  H    0.090613
   129  H    0.086611
   130  H    0.089998
   131  H    0.072960
   132  H    0.108883
   133  H    0.094055
   134  H    0.109519
   135  H    0.062285
   136  H    0.087939
   137  H    0.108551
 Sum of Mulliken charges =   0.00000

 Dipole moment (field-independent basis, Debye):
    X=              2.4072    Y=              3.9176    Z=              0.6026  Tot=              4.6373
 Quadrupole moment (field-independent basis, Debye-Ang):
   XX=           -342.7643   YY=           -392.5607   ZZ=           -399.6431
   XY=            -16.8852   XZ=              6.2341   YZ=             -2.3782

 Normal termination of Gaussian 09 at Thu Jun 27 21:37:55 2019.
