 Gaussian 09, Revision D.01,
 Gaussian 09:  ES64L-G09RevD.01 24-Apr-2013

 -------------------------------------
 # td=(NStates=1) CAM-B3LYP/6-31G(d,p)
 -------------------------------------

 --
 TD
 --
 Symbolic Z-matrix:
 Charge =  0 Multiplicity = 1

                         Standard orientation:
 ---------------------------------------------------------------------
 Center     Atomic      Atomic             Coordinates (Angstroms)
 Number     Number       Type             X           Y           Z
 ---------------------------------------------------------------------
      1         12           0       -7.122695    0.573763    0.182936
      2          6           0       -4.794022   -1.910556    0.549515
      3          6           0       -4.863930    2.908170    1.134862
      4          6           0       -9.501436    3.053665   -0.423067
      5          6           0       -9.589109   -1.784828   -0.742223
      6          7           0       -5.092499    0.433233    0.627571
      7          6           0       -4.279126   -0.683113    0.715110
      8          6           0       -2.961109   -0.259786    1.142466
      9          6           0       -3.028835    1.184772    1.536381
     10          6           0       -4.363888    1.463973    1.079985
     11          6           0       -2.891588    1.386883    3.101353
     12          6           0       -1.872403   -0.570851   -0.021738
     13          6           0       -0.469364   -0.423579    0.526777
     14          6           0        0.546081   -0.693029   -0.512851
     15          8           0        0.197606   -1.062594   -1.715886
     16          8           0        1.820964   -0.469855   -0.206044
     17          7           0       -7.227957    2.642677    0.294110
     18          6           0       -6.131434    3.400733    0.691373
     19          6           0       -6.604062    4.775282    0.779830
     20          6           0       -7.873122    4.817696    0.351202
     21          6           0       -8.224985    3.458746   -0.008480
     22          6           0       -5.757168    5.896477    1.367087
     23          6           0       -8.735458    6.005645    0.206765
     24          6           0       -8.323183    7.265187   -0.085097
     25          7           0       -9.178725    0.659551   -0.512523
     26          6           0       -9.969745    1.760362   -0.673577
     27          6           0      -11.247814    1.368451   -1.093689
     28          6           0      -11.289972    0.005740   -1.118688
     29          6           0      -10.020154   -0.490249   -0.735701
     30          6           0      -12.415563    2.371980   -1.219487
     31          6           0      -12.330125   -0.913837   -1.606003
     32          6           0      -12.424563   -1.116785   -3.097809
     33          7           0       -7.308851   -1.466225    0.095560
     34          6           0       -8.240925   -2.295268   -0.276600
     35          6           0       -7.858107   -3.568584   -0.512922
     36          6           0       -6.524473   -3.600635   -0.011502
     37          6           0       -6.158751   -2.181172    0.237765
     38          6           0       -8.556495   -4.821977   -0.920343
     39          6           0       -5.247368   -4.350554    0.119168
     40          8           0       -5.092414   -5.494029    0.009448
     41          6           0       -4.027631   -3.326073    0.504757
     42          6           0       -3.500861   -3.679258    1.747074
     43          8           0       -3.633436   -3.135664    2.826914
     44          8           0       -2.621991   -4.723343    1.641567
     45          6           0       -2.067120   -5.191683    2.962697
     46          6           0        2.911528   -0.707649   -1.156306
     47          6           0        4.111934   -0.463961   -0.410327
     48          6           0        5.088208    0.340658   -0.935796
     49          6           0        5.025967    1.148695   -2.230814
     50          6           0        6.538621    0.424744   -0.264708
     51          6           0        7.686224   -0.113483   -1.022101
     52          6           0        8.869170   -0.085589   -0.140949
     53          6           0       10.202340   -0.557346   -0.901395
     54          6           0       10.050827   -2.111128   -1.321447
     55          6           0       11.410277   -0.296053   -0.013213
     56          6           0       12.760083   -0.447054   -0.707375
     57          6           0       14.027782   -0.083929    0.231099
     58          6           0       15.331241   -0.075179   -0.460967
     59          6           0       15.700583   -1.523694   -1.122107
     60          6           0       16.493937    0.463799    0.388823
     61          6           0       17.856201    0.580576   -0.121153
     62          6           0       18.855661    1.345002    0.821838
     63          6           0       20.253177    1.340745    0.281518
     64          6           0       20.447931    2.122049   -1.019440
     65          6           0       21.213834    1.750801    1.403372
     66          1           0       -4.045315    3.651589    1.459983
     67          1           0      -10.020343    3.851561   -0.669858
     68          1           0      -10.428678   -2.570417   -0.589927
     69          1           0       -2.698836   -0.921436    1.930399
     70          1           0       -2.238991    1.704845    1.102997
     71          1           0       -1.854419    1.130565    3.495253
     72          1           0       -2.937442    2.438181    3.361571
     73          1           0       -3.704000    0.955154    3.696322
     74          1           0       -1.909852   -1.541661   -0.516511
     75          1           0       -2.144765    0.387064   -0.612366
     76          1           0       -0.099847    0.596218    0.861697
     77          1           0       -0.254506   -1.129721    1.424943
     78          1           0       -5.025163    6.412455    0.688585
     79          1           0       -6.381283    6.524706    1.971676
     80          1           0       -5.192177    5.338467    2.136375
     81          1           0       -9.894900    5.815980    0.307972
     82          1           0       -8.945486    8.168144    0.126259
     83          1           0       -7.335122    7.548087   -0.170899
     84          1           0      -12.261223    3.091386   -1.956708
     85          1           0      -13.316437    1.849930   -1.505227
     86          1           0      -12.759899    2.852718   -0.232784
     87          1           0      -12.192330   -1.817362   -0.945470
     88          1           0      -13.383812   -0.208109   -1.281654
     89          1           0      -13.224803   -1.751608   -3.285082
     90          1           0      -12.740995   -0.167614   -3.685959
     91          1           0      -11.401493   -1.556525   -3.198406
     92          1           0       -8.781938   -4.810221   -2.027939
     93          1           0       -7.789170   -5.754097   -0.911077
     94          1           0       -9.553168   -5.034290   -0.243046
     95          1           0       -3.348349   -3.514861   -0.286049
     96          1           0       -1.688246   -4.436166    3.432254
     97          1           0       -3.055922   -5.444475    3.406162
     98          1           0       -1.140472   -5.910773    2.644086
     99          1           0        2.651682   -1.788725   -1.343085
    100          1           0        2.720221   -0.008972   -2.147796
    101          1           0        4.201776   -1.195797    0.310782
    102          1           0        3.985092    1.342420   -2.643666
    103          1           0        5.578123    2.180199   -2.003492
    104          1           0        5.893185    0.920508   -2.986504
    105          1           0        6.650032    1.393088    0.130551
    106          1           0        6.500675   -0.012908    0.631325
    107          1           0        7.459921   -1.234759   -1.040465
    108          1           0        7.904232    0.259315   -2.112955
    109          1           0        8.975990    0.833501    0.180117
    110          1           0        8.793461   -0.661494    0.795614
    111          1           0       10.600652    0.018216   -1.860568
    112          1           0        9.056520   -2.063954   -1.923252
    113          1           0       11.046412   -2.342441   -1.973933
    114          1           0        9.979308   -2.740340   -0.276703
    115          1           0       11.389608    0.804697    0.454729
    116          1           0       11.409892   -1.038496    0.935119
    117          1           0       12.840700   -1.399937   -1.039602
    118          1           0       12.711363    0.247943   -1.460496
    119          1           0       13.930849    0.933456    0.846608
    120          1           0       14.039112   -0.971556    1.115765
    121          1           0       15.330047    0.617869   -1.238555
    122          1           0       15.935385   -2.183608   -0.360251
    123          1           0       15.171614   -2.091890   -1.705438
    124          1           0       16.447610   -1.456206   -1.875691
    125          1           0       16.001971    1.322112    0.940903
    126          1           0       16.567942   -0.142625    1.343888
    127          1           0       18.252612   -0.404986   -0.474277
    128          1           0       17.754363    1.157430   -1.159657
    129          1           0       18.460917    2.328924    1.192279
    130          1           0       18.836198    0.682240    1.771234
    131          1           0       20.608393    0.332469   -0.107841
    132          1           0       20.369281    3.308886   -0.778092
    133          1           0       21.594864    2.118260   -1.377570
    134          1           0       19.851060    1.910974   -1.823585
    135          1           0       21.302850    1.006354    2.210861
    136          1           0       22.286563    1.812018    1.050069
    137          1           0       20.995309    2.890456    1.742155
 ---------------------------------------------------------------------

 SCF Done:  E(RCAM-B3LYP) =  -2932.61953624     A.U. after   18 cycles

 Excitation energies and oscillator strengths:

 Excited State   1:      Singlet-A      2.1348 eV  580.78 nm  f=0.2115  <S**2>=0.000
     240 -> 242       -0.20210
     240 -> 243        0.21107
     241 -> 242        0.62672
     241 -> 243        0.12457
 This state for optimization and/or second-order correction.
 Total Energy, E(TD-HF/TD-KS) =  -2932.54108409
 Copying the excited state density for this state as the 1-particle RhoCI density.

 The electronic state is 1-A.
 Alpha  occ. eigenvalues --  -46.85279 -19.25943 -19.23943 -19.19822 -19.19431
 Alpha  occ. eigenvalues --  -19.18911 -14.43084 -14.39250 -14.38813 -14.38348
 Alpha  occ. eigenvalues --  -10.38886 -10.37447 -10.34471 -10.33050 -10.32926
 Alpha  occ. eigenvalues --  -10.31043 -10.30726 -10.29798 -10.29525 -10.29237
 Alpha  occ. eigenvalues --  -10.28829 -10.28790 -10.28778 -10.28749 -10.28334
 Alpha  occ. eigenvalues --  -10.28319 -10.28302 -10.28072 -10.28040 -10.27945
 Alpha  occ. eigenvalues --  -10.27742 -10.27734 -10.27729 -10.27632 -10.27620
 Alpha  occ. eigenvalues --  -10.27557 -10.27519 -10.27283 -10.27267 -10.27099
 Alpha  occ. eigenvalues --  -10.26899 -10.26876 -10.26564 -10.26517 -10.26474
 Alpha  occ. eigenvalues --  -10.26349 -10.26313 -10.26251 -10.26176 -10.26029
 Alpha  occ. eigenvalues --  -10.26027 -10.25885 -10.25775 -10.25736 -10.25677
 Alpha  occ. eigenvalues --  -10.25648 -10.25597 -10.25525 -10.25347 -10.25084
 Alpha  occ. eigenvalues --  -10.24846 -10.24757 -10.24279 -10.24192 -10.22515
 Alpha  occ. eigenvalues --   -3.14073  -1.88800  -1.88288  -1.88251  -1.16855
 Alpha  occ. eigenvalues --   -1.16111  -1.13684  -1.06581  -1.06259  -1.04502
 Alpha  occ. eigenvalues --   -1.04255  -1.04229  -1.01705  -0.92163  -0.91522
 Alpha  occ. eigenvalues --   -0.90852  -0.90516  -0.89709  -0.89437  -0.89104
 Alpha  occ. eigenvalues --   -0.88626  -0.87772  -0.87278  -0.86711  -0.86136
 Alpha  occ. eigenvalues --   -0.85730  -0.84520  -0.83297  -0.82977  -0.82679
 Alpha  occ. eigenvalues --   -0.81904  -0.80844  -0.80427  -0.79796  -0.78231
 Alpha  occ. eigenvalues --   -0.77715  -0.77216  -0.77098  -0.75993  -0.75884
 Alpha  occ. eigenvalues --   -0.75213  -0.74713  -0.74293  -0.73784  -0.72337
 Alpha  occ. eigenvalues --   -0.72166  -0.70861  -0.69913  -0.69146  -0.67846
 Alpha  occ. eigenvalues --   -0.67155  -0.67065  -0.66117  -0.64844  -0.64716
 Alpha  occ. eigenvalues --   -0.63718  -0.63479  -0.62174  -0.61756  -0.61644
 Alpha  occ. eigenvalues --   -0.61230  -0.61091  -0.60914  -0.60094  -0.59329
 Alpha  occ. eigenvalues --   -0.58315  -0.58107  -0.57641  -0.57453  -0.57016
 Alpha  occ. eigenvalues --   -0.56094  -0.55612  -0.55256  -0.55020  -0.54823
 Alpha  occ. eigenvalues --   -0.54563  -0.54350  -0.53466  -0.53249  -0.52736
 Alpha  occ. eigenvalues --   -0.52526  -0.52290  -0.52029  -0.51975  -0.51765
 Alpha  occ. eigenvalues --   -0.51697  -0.51060  -0.50862  -0.50670  -0.50320
 Alpha  occ. eigenvalues --   -0.50172  -0.49814  -0.49759  -0.49534  -0.49445
 Alpha  occ. eigenvalues --   -0.49021  -0.48673  -0.48491  -0.48332  -0.48269
 Alpha  occ. eigenvalues --   -0.48017  -0.47838  -0.47372  -0.47325  -0.47273
 Alpha  occ. eigenvalues --   -0.46957  -0.46711  -0.46567  -0.46446  -0.46139
 Alpha  occ. eigenvalues --   -0.45886  -0.45423  -0.45077  -0.45017  -0.44857
 Alpha  occ. eigenvalues --   -0.44670  -0.44495  -0.44359  -0.44151  -0.43912
 Alpha  occ. eigenvalues --   -0.43826  -0.43694  -0.43607  -0.43432  -0.43357
 Alpha  occ. eigenvalues --   -0.43222  -0.42834  -0.42572  -0.42511  -0.42277
 Alpha  occ. eigenvalues --   -0.42202  -0.42062  -0.41824  -0.41370  -0.41179
 Alpha  occ. eigenvalues --   -0.41034  -0.40864  -0.40631  -0.40603  -0.40359
 Alpha  occ. eigenvalues --   -0.40341  -0.40211  -0.39761  -0.39538  -0.39092
 Alpha  occ. eigenvalues --   -0.39027  -0.38449  -0.38384  -0.38267  -0.37927
 Alpha  occ. eigenvalues --   -0.37762  -0.37043  -0.36775  -0.36614  -0.36245
 Alpha  occ. eigenvalues --   -0.36110  -0.35975  -0.35821  -0.35423  -0.34887
 Alpha  occ. eigenvalues --   -0.34702  -0.34624  -0.34340  -0.34223  -0.32768
 Alpha  occ. eigenvalues --   -0.32617  -0.32115  -0.31834  -0.31084  -0.30076
 Alpha  occ. eigenvalues --   -0.28956  -0.28548  -0.28266  -0.27446  -0.22858
 Alpha  occ. eigenvalues --   -0.21427
 Alpha virt. eigenvalues --   -0.06520  -0.02771   0.01761   0.03851   0.04203
 Alpha virt. eigenvalues --    0.05498   0.05919   0.06078   0.06477   0.07117
 Alpha virt. eigenvalues --    0.08933   0.10632   0.11205   0.11332   0.11497

 Mulliken charges:
               1
     1  Mg   0.827867
     2  C    0.053536
     3  C   -0.229973
     4  C   -0.162692
     5  C   -0.186260
     6  N   -0.639049
     7  C    0.326029
     8  C   -0.199209
     9  C   -0.139850
    10  C    0.339716
    11  C   -0.319691
    12  C   -0.153625
    13  C   -0.264388
    14  C    0.596857
    15  O   -0.531421
    16  O   -0.479276
    17  N   -0.718484
    18  C    0.325818
    19  C   -0.005588
    20  C    0.031141
    21  C    0.322644
    22  C   -0.370708
    23  C   -0.094069
    24  C   -0.239790
    25  N   -0.691310
    26  C    0.338379
    27  C    0.010057
    28  C    0.045397
    29  C    0.301643
    30  C   -0.365578
    31  C   -0.233071
    32  C   -0.279987
    33  N   -0.694330
    34  C    0.238394
    35  C    0.052681
    36  C   -0.037082
    37  C    0.249611
    38  C   -0.380993
    39  C    0.337841
    40  O   -0.409557
    41  C   -0.334952
    42  C    0.659532
    43  O   -0.500519
    44  O   -0.502365
    45  C   -0.071459
    46  C    0.007915
    47  C   -0.096224
    48  C    0.106206
    49  C   -0.365294
    50  C   -0.234834
    51  C   -0.171005
    52  C   -0.169482
    53  C   -0.070392
    54  C   -0.291174
    55  C   -0.160041
    56  C   -0.172301
    57  C   -0.167166
    58  C   -0.038720
    59  C   -0.335714
    60  C   -0.176974
    61  C   -0.172515
    62  C   -0.155015
    63  C   -0.044402
    64  C   -0.295083
    65  C   -0.305777
    66  H    0.090406
    67  H    0.060053
    68  H    0.098168
    69  H    0.138155
    70  H    0.120929
    71  H    0.109773
    72  H    0.110876
    73  H    0.136407
    74  H    0.144597
    75  H    0.104384
    76  H    0.129873
    77  H    0.131123
    78  H    0.124899
    79  H    0.131552
    80  H    0.110859
    81  H    0.095562
    82  H    0.103532
    83  H    0.108361
    84  H    0.126566
    85  H    0.108995
    86  H    0.113858
    87  H    0.101514
    88  H    0.045158
    89  H    0.121282
    90  H    0.105046
    91  H    0.114221
    92  H    0.118395
    93  H    0.132051
    94  H    0.100260
    95  H    0.172847
    96  H    0.143780
    97  H    0.146018
    98  H    0.115352
    99  H    0.131104
   100  H    0.111393
   101  H    0.102794
   102  H    0.121944
   103  H    0.101095
   104  H    0.126879
   105  H    0.106267
   106  H    0.108879
   107  H    0.101695
   108  H    0.091768
   109  H    0.104018
   110  H    0.099286
   111  H    0.067380
   112  H    0.107490
   113  H    0.092226
   114  H    0.089505
   115  H    0.067759
   116  H    0.057490
   117  H    0.112218
   118  H    0.099843
   119  H    0.071768
   120  H    0.055954
   121  H    0.095443
   122  H    0.108487
   123  H    0.103325
   124  H    0.093680
   125  H    0.080425
   126  H    0.073627
   127  H    0.104845
   128  H    0.062212
   129  H    0.098515
   130  H    0.083972
   131  H    0.088055
   132  H    0.066515
   133  H    0.080460
   134  H    0.120553
   135  H    0.108917
   136  H    0.090952
   137  H    0.082537
 Sum of Mulliken charges =   0.00000

 Dipole moment (field-independent basis, Debye):
    X=              4.0820    Y=              5.9868    Z=              1.3874  Tot=              7.3776
 Quadrupole moment (field-independent basis, Debye-Ang):
   XX=           -350.8438   YY=           -397.6005   ZZ=           -398.3963
   XY=            -32.9454   XZ=              0.0835   YZ=             -0.0078

 Normal termination of Gaussian 09 at Fri Jun 28 08:56:57 2019.
