 Gaussian 09, Revision D.01,
 Gaussian 09:  ES64L-G09RevD.01 24-Apr-2013

 -------------------------------------
 # td=(NStates=1) CAM-B3LYP/6-31G(d,p)
 -------------------------------------

 --
 TD
 --
 Symbolic Z-matrix:
 Charge =  0 Multiplicity = 1

                         Standard orientation:
 ---------------------------------------------------------------------
 Center     Atomic      Atomic             Coordinates (Angstroms)
 Number     Number       Type             X           Y           Z
 ---------------------------------------------------------------------
      1         12           0       -7.118916    0.546229    0.042436
      2          6           0       -4.906110   -2.027773    0.569155
      3          6           0       -4.879302    2.746488    1.275568
      4          6           0       -9.438196    3.206608   -0.355521
      5          6           0       -9.411188   -1.723001   -0.935066
      6          7           0       -5.113118    0.373082    0.750800
      7          6           0       -4.344491   -0.779682    0.802080
      8          6           0       -2.948646   -0.387990    1.244031
      9          6           0       -3.021801    1.037958    1.614344
     10          6           0       -4.379928    1.428315    1.233217
     11          6           0       -2.733274    1.321014    3.194197
     12          6           0       -2.016654   -0.657749    0.100514
     13          6           0       -0.542946   -0.545642    0.595199
     14          6           0        0.520873   -0.660782   -0.691402
     15          8           0        0.308961   -1.162739   -1.709356
     16          8           0        1.712998   -0.196012   -0.201241
     17          7           0       -7.182844    2.547921    0.443984
     18          6           0       -6.098862    3.284430    0.856761
     19          6           0       -6.461639    4.710099    0.924167
     20          6           0       -7.703496    4.879548    0.473911
     21          6           0       -8.213455    3.574540    0.137039
     22          6           0       -5.645356    5.781191    1.361020
     23          6           0       -8.559578    6.035201    0.478321
     24          6           0       -8.264985    7.364384    0.179806
     25          7           0       -9.029072    0.712138   -0.586839
     26          6           0       -9.796629    1.842535   -0.692061
     27          6           0      -11.084752    1.465661   -1.246989
     28          6           0      -11.147147    0.111629   -1.323894
     29          6           0       -9.845055   -0.396076   -1.011502
     30          6           0      -12.203052    2.491773   -1.408442
     31          6           0      -12.299682   -0.802135   -1.769499
     32          6           0      -12.254762   -1.048028   -3.280261
     33          7           0       -7.222976   -1.380447   -0.212152
     34          6           0       -8.297937   -2.296095   -0.521806
     35          6           0       -7.880490   -3.599788   -0.397360
     36          6           0       -6.605350   -3.555194    0.143273
     37          6           0       -6.242362   -2.176117    0.151788
     38          6           0       -8.598019   -4.891611   -1.017987
     39          6           0       -5.319369   -4.389264    0.217180
     40          8           0       -5.181165   -5.527481    0.119444
     41          6           0       -4.251964   -3.406555    0.534734
     42          6           0       -3.590177   -3.685177    1.873101
     43          8           0       -3.775565   -3.267302    2.997830
     44          8           0       -2.677295   -4.643015    1.701825
     45          6           0       -2.178325   -5.422773    2.909051
     46          6           0        2.867513   -0.406472   -1.213366
     47          6           0        4.137281   -0.320208   -0.558181
     48          6           0        5.123521    0.519922   -0.874921
     49          6           0        5.147351    1.392606   -1.992114
     50          6           0        6.470237    0.380448   -0.154024
     51          6           0        7.593796   -0.153182   -0.918931
     52          6           0        8.883658   -0.084422   -0.134116
     53          6           0       10.137426   -0.666339   -0.853052
     54          6           0       10.109218   -2.085038   -1.364105
     55          6           0       11.400784   -0.417128   -0.039022
     56          6           0       12.684941   -0.508605   -0.897892
     57          6           0       13.894134   -0.149888    0.089996
     58          6           0       15.324837   -0.252895   -0.532783
     59          6           0       15.687706   -1.744132   -0.922854
     60          6           0       16.455740    0.411854    0.335428
     61          6           0       17.679967    0.601085   -0.293802
     62          6           0       18.732748    1.196093    0.686452
     63          6           0       20.268178    1.279834    0.284252
     64          6           0       20.386598    2.348700   -1.003108
     65          6           0       21.069023    1.795548    1.455095
     66          1           0       -4.106775    3.292404    1.622408
     67          1           0      -10.073190    3.986259   -0.609339
     68          1           0      -10.047619   -2.450868   -1.233892
     69          1           0       -2.441059   -0.966574    2.121019
     70          1           0       -2.412301    1.841701    1.075698
     71          1           0       -1.820871    1.036678    3.466318
     72          1           0       -2.886693    2.397397    3.418788
     73          1           0       -3.386698    0.763550    3.910998
     74          1           0       -2.176402   -1.442920   -0.692425
     75          1           0       -2.456892    0.289790   -0.842225
     76          1           0       -0.190722    0.404001    1.235833
     77          1           0       -0.156879   -1.304137    1.424433
     78          1           0       -5.055123    6.307700    0.592166
     79          1           0       -6.230981    6.690411    1.570230
     80          1           0       -5.004119    5.503734    2.200757
     81          1           0       -9.651283    5.803582    0.546293
     82          1           0       -9.154681    7.951884    0.055569
     83          1           0       -7.331291    7.706192   -0.112910
     84          1           0      -12.011944    3.408558   -2.021719
     85          1           0      -13.087737    2.035096   -1.711498
     86          1           0      -12.329536    3.061937   -0.276633
     87          1           0      -12.193407   -1.650362   -1.245780
     88          1           0      -13.184256   -0.386986   -1.472534
     89          1           0      -13.111497   -1.507635   -3.511560
     90          1           0      -12.335926   -0.091955   -3.879423
     91          1           0      -11.257556   -1.618050   -3.524883
     92          1           0       -8.900291   -4.826303   -2.042190
     93          1           0       -7.888533   -5.664709   -0.962974
     94          1           0       -9.353676   -5.097143   -0.213398
     95          1           0       -3.568376   -3.601537   -0.340275
     96          1           0       -1.901209   -4.465288    3.605708
     97          1           0       -3.062418   -5.998163    3.409500
     98          1           0       -1.355137   -6.102436    2.420695
     99          1           0        2.812576   -1.295936   -1.938525
    100          1           0        2.670783    0.531201   -1.850518
    101          1           0        4.257569   -0.992349    0.356471
    102          1           0        4.369412    1.591589   -2.602202
    103          1           0        5.497364    2.348217   -1.790248
    104          1           0        5.944680    1.157545   -2.716779
    105          1           0        6.820859    1.441733    0.208523
    106          1           0        6.442464   -0.001447    0.864660
    107          1           0        7.435963   -1.328604   -1.117314
    108          1           0        7.557776    0.497853   -1.802634
    109          1           0        9.172543    1.020437   -0.054199
    110          1           0        8.749560   -0.602530    0.872966
    111          1           0       10.188157   -0.068854   -1.841054
    112          1           0        9.137253   -2.196837   -1.886441
    113          1           0       10.925019   -2.369688   -2.117614
    114          1           0       10.057374   -2.668844   -0.389816
    115          1           0       11.487588    0.611643    0.129931
    116          1           0       11.400283   -1.192183    0.705534
    117          1           0       12.676090   -1.396342   -1.401021
    118          1           0       12.676685    0.412167   -1.583576
    119          1           0       13.665427    0.763647    0.500174
    120          1           0       14.003734   -0.709464    1.105455
    121          1           0       15.214794    0.356858   -1.423486
    122          1           0       15.710353   -2.134714    0.131172
    123          1           0       15.037569   -2.271491   -1.456347
    124          1           0       16.714768   -1.626050   -1.409320
    125          1           0       16.072874    1.252937    0.617465
    126          1           0       16.695709   -0.213664    1.264306
    127          1           0       18.186349   -0.286613   -0.693694
    128          1           0       17.723091    1.460807   -1.246177
    129          1           0       18.281899    2.114024    1.225929
    130          1           0       18.464498    0.648414    1.650723
    131          1           0       20.664816    0.299414   -0.047997
    132          1           0       20.180241    3.341180   -0.696250
    133          1           0       21.356362    2.357548   -1.416241
    134          1           0       19.902293    2.174664   -1.983618
    135          1           0       20.956136    1.000429    2.259893
    136          1           0       22.079196    2.031032    1.297874
    137          1           0       20.631256    2.878926    1.849732
 ---------------------------------------------------------------------

 SCF Done:  E(RCAM-B3LYP) =  -2932.64915054     A.U. after   17 cycles

 Excitation energies and oscillator strengths:

 Excited State   1:      Singlet-A      2.2195 eV  558.61 nm  f=0.1698  <S**2>=0.000
     240 -> 242        0.16184
     240 -> 243       -0.26659
     241 -> 242        0.61023
     241 -> 243        0.13976
 This state for optimization and/or second-order correction.
 Total Energy, E(TD-HF/TD-KS) =  -2932.56758483
 Copying the excited state density for this state as the 1-particle RhoCI density.

 The electronic state is 1-A.
 Alpha  occ. eigenvalues --  -46.82387 -19.25907 -19.24497 -19.22057 -19.20554
 Alpha  occ. eigenvalues --  -19.20113 -14.40983 -14.39186 -14.38390 -14.38231
 Alpha  occ. eigenvalues --  -10.39285 -10.38622 -10.34570 -10.33853 -10.32630
 Alpha  occ. eigenvalues --  -10.30844 -10.30484 -10.30472 -10.29914 -10.29714
 Alpha  occ. eigenvalues --  -10.29285 -10.28464 -10.28262 -10.28261 -10.28202
 Alpha  occ. eigenvalues --  -10.28154 -10.27974 -10.27934 -10.27634 -10.27612
 Alpha  occ. eigenvalues --  -10.27581 -10.26860 -10.26647 -10.26599 -10.26560
 Alpha  occ. eigenvalues --  -10.26438 -10.26375 -10.26342 -10.26327 -10.26203
 Alpha  occ. eigenvalues --  -10.26164 -10.26154 -10.25926 -10.25856 -10.25847
 Alpha  occ. eigenvalues --  -10.25830 -10.25792 -10.25763 -10.25670 -10.25623
 Alpha  occ. eigenvalues --  -10.25470 -10.25350 -10.25248 -10.25069 -10.25058
 Alpha  occ. eigenvalues --  -10.24849 -10.24820 -10.24474 -10.24319 -10.24240
 Alpha  occ. eigenvalues --  -10.24107 -10.24057 -10.24015 -10.23994 -10.23618
 Alpha  occ. eigenvalues --   -3.11679  -1.86368  -1.85910  -1.85886  -1.18329
 Alpha  occ. eigenvalues --   -1.17023  -1.15019  -1.09881  -1.06984  -1.04131
 Alpha  occ. eigenvalues --   -1.03059  -1.01494  -1.00210  -0.92867  -0.92632
 Alpha  occ. eigenvalues --   -0.90914  -0.90232  -0.90116  -0.89689  -0.88699
 Alpha  occ. eigenvalues --   -0.87546  -0.87314  -0.87250  -0.86724  -0.86283
 Alpha  occ. eigenvalues --   -0.85058  -0.84134  -0.83373  -0.83050  -0.82620
 Alpha  occ. eigenvalues --   -0.81840  -0.80577  -0.80403  -0.79843  -0.78237
 Alpha  occ. eigenvalues --   -0.77842  -0.76757  -0.76637  -0.75984  -0.75685
 Alpha  occ. eigenvalues --   -0.75155  -0.74570  -0.74393  -0.73318  -0.72411
 Alpha  occ. eigenvalues --   -0.71856  -0.70284  -0.69739  -0.68811  -0.68081
 Alpha  occ. eigenvalues --   -0.66702  -0.65930  -0.65090  -0.64822  -0.64355
 Alpha  occ. eigenvalues --   -0.63721  -0.63153  -0.62693  -0.62091  -0.61836
 Alpha  occ. eigenvalues --   -0.61749  -0.60844  -0.60156  -0.60056  -0.58951
 Alpha  occ. eigenvalues --   -0.58442  -0.58226  -0.57408  -0.57189  -0.56629
 Alpha  occ. eigenvalues --   -0.56448  -0.55896  -0.55116  -0.54885  -0.54676
 Alpha  occ. eigenvalues --   -0.54642  -0.54130  -0.53576  -0.53499  -0.52850
 Alpha  occ. eigenvalues --   -0.52698  -0.52406  -0.52219  -0.52102  -0.51880
 Alpha  occ. eigenvalues --   -0.51150  -0.51050  -0.50859  -0.50841  -0.50549
 Alpha  occ. eigenvalues --   -0.50338  -0.50032  -0.49850  -0.49400  -0.49349
 Alpha  occ. eigenvalues --   -0.49195  -0.49071  -0.48927  -0.48702  -0.48306
 Alpha  occ. eigenvalues --   -0.48127  -0.47901  -0.47683  -0.47473  -0.47399
 Alpha  occ. eigenvalues --   -0.47128  -0.46724  -0.46449  -0.46305  -0.46143
 Alpha  occ. eigenvalues --   -0.45991  -0.45444  -0.45227  -0.45113  -0.44728
 Alpha  occ. eigenvalues --   -0.44693  -0.44624  -0.44591  -0.44344  -0.44149
 Alpha  occ. eigenvalues --   -0.44095  -0.43982  -0.43685  -0.43548  -0.43384
 Alpha  occ. eigenvalues --   -0.43296  -0.43007  -0.42829  -0.42705  -0.42427
 Alpha  occ. eigenvalues --   -0.41943  -0.41693  -0.41582  -0.41451  -0.41142
 Alpha  occ. eigenvalues --   -0.41095  -0.40937  -0.40819  -0.40472  -0.40279
 Alpha  occ. eigenvalues --   -0.39934  -0.39875  -0.39723  -0.39626  -0.39498
 Alpha  occ. eigenvalues --   -0.39080  -0.38697  -0.38686  -0.38257  -0.37491
 Alpha  occ. eigenvalues --   -0.37088  -0.37070  -0.36733  -0.36515  -0.36450
 Alpha  occ. eigenvalues --   -0.36052  -0.35912  -0.35695  -0.35541  -0.35425
 Alpha  occ. eigenvalues --   -0.34877  -0.34402  -0.34165  -0.33604  -0.33386
 Alpha  occ. eigenvalues --   -0.33053  -0.32980  -0.32038  -0.30273  -0.29817
 Alpha  occ. eigenvalues --   -0.29777  -0.29305  -0.27682  -0.26942  -0.22906
 Alpha  occ. eigenvalues --   -0.20990
 Alpha virt. eigenvalues --   -0.05214  -0.02822   0.02329   0.03911   0.05390
 Alpha virt. eigenvalues --    0.06137   0.06303   0.07061   0.07938   0.07977
 Alpha virt. eigenvalues --    0.09138   0.09729   0.11657   0.11810   0.12071

 Mulliken charges:
               1
     1  Mg   0.794902
     2  C    0.049295
     3  C   -0.192709
     4  C   -0.171667
     5  C   -0.194336
     6  N   -0.647127
     7  C    0.298522
     8  C   -0.158460
     9  C   -0.143363
    10  C    0.354724
    11  C   -0.323905
    12  C   -0.137627
    13  C   -0.280703
    14  C    0.604133
    15  O   -0.417650
    16  O   -0.502013
    17  N   -0.698871
    18  C    0.368079
    19  C    0.049464
    20  C    0.077623
    21  C    0.251824
    22  C   -0.408838
    23  C   -0.118402
    24  C   -0.229543
    25  N   -0.694948
    26  C    0.307949
    27  C   -0.001180
    28  C    0.017127
    29  C    0.272275
    30  C   -0.359007
    31  C   -0.215260
    32  C   -0.297557
    33  N   -0.748259
    34  C    0.289737
    35  C   -0.004162
    36  C   -0.084095
    37  C    0.342694
    38  C   -0.357416
    39  C    0.379603
    40  O   -0.409188
    41  C   -0.305288
    42  C    0.627248
    43  O   -0.487548
    44  O   -0.474862
    45  C   -0.082547
    46  C   -0.017578
    47  C   -0.124227
    48  C    0.157061
    49  C   -0.395408
    50  C   -0.239800
    51  C   -0.141094
    52  C   -0.164507
    53  C   -0.079115
    54  C   -0.307008
    55  C   -0.144948
    56  C   -0.196586
    57  C   -0.177884
    58  C   -0.085188
    59  C   -0.296970
    60  C   -0.154868
    61  C   -0.146822
    62  C   -0.174925
    63  C   -0.053252
    64  C   -0.335699
    65  C   -0.291389
    66  H    0.049642
    67  H    0.085567
    68  H    0.071000
    69  H    0.126868
    70  H    0.125067
    71  H    0.121986
    72  H    0.106028
    73  H    0.125953
    74  H    0.146639
    75  H    0.030122
    76  H    0.120033
    77  H    0.127982
    78  H    0.123773
    79  H    0.118368
    80  H    0.116337
    81  H    0.100489
    82  H    0.107858
    83  H    0.109458
    84  H    0.115515
    85  H    0.112759
    86  H    0.077864
    87  H    0.112030
    88  H    0.104635
    89  H    0.113531
    90  H    0.102566
    91  H    0.098735
    92  H    0.130037
    93  H    0.150545
    94  H    0.127157
    95  H    0.168792
    96  H    0.137853
    97  H    0.138737
    98  H    0.135329
    99  H    0.146857
   100  H    0.119373
   101  H    0.093710
   102  H    0.121418
   103  H    0.126448
   104  H    0.120747
   105  H    0.073635
   106  H    0.100011
   107  H    0.081992
   108  H    0.093985
   109  H    0.089076
   110  H    0.084201
   111  H    0.059751
   112  H    0.100849
   113  H    0.106502
   114  H    0.087464
   115  H    0.095353
   116  H    0.096227
   117  H    0.100355
   118  H    0.087811
   119  H    0.093725
   120  H    0.062689
   121  H    0.079684
   122  H    0.094018
   123  H    0.110532
   124  H    0.096344
   125  H    0.103595
   126  H    0.080530
   127  H    0.096586
   128  H    0.053446
   129  H    0.075247
   130  H    0.066460
   131  H    0.095029
   132  H    0.110681
   133  H    0.099408
   134  H    0.098820
   135  H    0.101442
   136  H    0.112541
   137  H    0.075745
 Sum of Mulliken charges =   0.00000

 Dipole moment (field-independent basis, Debye):
    X=              3.4156    Y=              4.1112    Z=             -0.6124  Tot=              5.3799
 Quadrupole moment (field-independent basis, Debye-Ang):
   XX=           -355.8811   YY=           -382.7648   ZZ=           -396.5123
   XY=            -13.8377   XZ=             11.6990   YZ=             -4.4105

 Normal termination of Gaussian 09 at Fri Jun 28 16:56:38 2019.
