 Gaussian 09, Revision D.01,
 Gaussian 09:  ES64L-G09RevD.01 24-Apr-2013

 -------------------------------------
 # td=(NStates=1) CAM-B3LYP/6-31G(d,p)
 -------------------------------------

 --
 TD
 --
 Symbolic Z-matrix:
 Charge =  0 Multiplicity = 1

                         Standard orientation:
 ---------------------------------------------------------------------
 Center     Atomic      Atomic             Coordinates (Angstroms)
 Number     Number       Type             X           Y           Z
 ---------------------------------------------------------------------
      1         12           0       -7.209886    0.672150    0.182249
      2          6           0       -4.978915   -1.933821    0.503171
      3          6           0       -4.777108    2.815976    1.171523
      4          6           0       -9.340613    3.167548   -0.360342
      5          6           0       -9.568119   -1.630184   -0.770333
      6          7           0       -5.153400    0.369383    0.724132
      7          6           0       -4.365337   -0.733063    0.795771
      8          6           0       -2.985319   -0.390032    1.167215
      9          6           0       -3.051484    1.032966    1.655232
     10          6           0       -4.445392    1.505994    1.078239
     11          6           0       -2.929538    1.162415    3.155481
     12          6           0       -1.953339   -0.705971    0.112320
     13          6           0       -0.429055   -0.724044    0.494410
     14          6           0        0.517472   -0.830426   -0.675660
     15          8           0        0.158515   -1.080916   -1.774115
     16          8           0        1.775860   -0.556725   -0.297733
     17          7           0       -7.077614    2.601636    0.299736
     18          6           0       -5.961502    3.324067    0.740896
     19          6           0       -6.289356    4.767232    0.741985
     20          6           0       -7.621721    4.778722    0.287234
     21          6           0       -8.048357    3.450742    0.104264
     22          6           0       -5.412336    5.786310    1.112358
     23          6           0       -8.541971    6.107067    0.268831
     24          6           0       -8.195780    7.380163    0.193071
     25          7           0       -9.061210    0.742106   -0.483720
     26          6           0       -9.779092    1.859255   -0.633416
     27          6           0      -11.208270    1.545557   -0.984811
     28          6           0      -11.281114    0.180098   -1.116569
     29          6           0       -9.864517   -0.349727   -0.744303
     30          6           0      -12.322654    2.603314   -1.259461
     31          6           0      -12.512350   -0.606139   -1.606916
     32          6           0      -12.465107   -0.888479   -3.064401
     33          7           0       -7.292740   -1.384057   -0.140586
     34          6           0       -8.448508   -2.291668   -0.377204
     35          6           0       -7.972648   -3.686727   -0.330935
     36          6           0       -6.580135   -3.593535   -0.165973
     37          6           0       -6.249060   -2.148356    0.014465
     38          6           0       -8.842097   -4.822230   -0.568146
     39          6           0       -5.521130   -4.362747    0.134499
     40          8           0       -5.194371   -5.570895    0.203041
     41          6           0       -4.331377   -3.376128    0.456984
     42          6           0       -3.619895   -3.588611    1.737615
     43          8           0       -3.632772   -3.024932    2.837600
     44          8           0       -2.842848   -4.692489    1.551623
     45          6           0       -2.112643   -5.136479    2.744938
     46          6           0        2.774629   -0.806528   -1.318398
     47          6           0        4.127642   -0.604948   -0.703550
     48          6           0        5.099953    0.192258   -0.965133
     49          6           0        5.243008    1.176347   -2.072096
     50          6           0        6.422550    0.209516   -0.131493
     51          6           0        7.670868   -0.354429   -0.909189
     52          6           0        8.990335   -0.282449   -0.065692
     53          6           0       10.114094   -0.628293   -0.883720
     54          6           0       10.203030   -2.071207   -1.434158
     55          6           0       11.503736   -0.306106   -0.137117
     56          6           0       12.842962   -0.554872   -0.809372
     57          6           0       14.045499   -0.153511    0.162891
     58          6           0       15.397196   -0.147952   -0.472020
     59          6           0       15.864922   -1.567615   -0.988641
     60          6           0       16.458430    0.444376    0.389391
     61          6           0       17.781225    0.680854   -0.181529
     62          6           0       18.816539    1.302032    0.847852
     63          6           0       20.222507    1.465752    0.375352
     64          6           0       20.402809    2.290570   -0.923328
     65          6           0       21.132775    2.066388    1.540427
     66          1           0       -3.817256    3.473464    1.538737
     67          1           0       -9.918140    4.053463   -0.569435
     68          1           0      -10.228284   -2.180447   -1.413343
     69          1           0       -2.630724   -0.959862    1.977073
     70          1           0       -2.382670    1.568774    1.128615
     71          1           0       -1.922548    0.862879    3.634326
     72          1           0       -2.805288    2.268577    3.197890
     73          1           0       -3.914958    0.860304    3.612326
     74          1           0       -2.341233   -1.758125   -0.530224
     75          1           0       -1.941049    0.079175   -0.773606
     76          1           0       -0.242276    0.233643    1.180739
     77          1           0       -0.215408   -1.513383    1.185875
     78          1           0       -4.929711    6.220238    0.240559
     79          1           0       -6.012049    6.732348    1.753135
     80          1           0       -4.611062    5.401127    1.805096
     81          1           0       -9.594230    5.911208    0.629605
     82          1           0       -8.842749    8.172914    0.378064
     83          1           0       -7.092419    7.397901   -0.181078
     84          1           0      -12.097723    3.107811   -2.335058
     85          1           0      -13.376569    2.104172   -1.343071
     86          1           0      -12.263627    3.475468   -0.433968
     87          1           0      -12.715272   -1.421825   -0.785109
     88          1           0      -13.404522    0.221298   -1.487101
     89          1           0      -13.482069   -1.335997   -3.503134
     90          1           0      -12.255298    0.117731   -3.559267
     91          1           0      -11.688867   -1.493408   -3.381626
     92          1           0       -9.510648   -4.567100   -1.487864
     93          1           0       -8.189343   -5.714973   -0.643672
     94          1           0       -9.781377   -5.143376    0.289537
     95          1           0       -3.441606   -3.263967   -0.320782
     96          1           0       -1.198980   -4.447637    3.035343
     97          1           0       -2.707615   -5.197067    3.635261
     98          1           0       -1.677324   -6.115662    2.354195
     99          1           0        2.808480   -1.852214   -1.603448
    100          1           0        2.410930    0.034345   -2.313987
    101          1           0        4.224540   -1.456080    0.155926
    102          1           0        4.089343    1.398176   -2.325510
    103          1           0        5.861118    2.022101   -1.515651
    104          1           0        5.675072    0.699790   -2.838453
    105          1           0        6.556823    1.273628    0.314909
    106          1           0        6.272769   -0.375878    0.841086
    107          1           0        7.381818   -1.500752   -1.053993
    108          1           0        7.859534   -0.025776   -1.763698
    109          1           0        9.053921    0.668968    0.512965
    110          1           0        8.912526   -1.217876    0.712660
    111          1           0       10.206376    0.185547   -1.743187
    112          1           0        9.399121   -2.210346   -2.255696
    113          1           0       11.079257   -2.146412   -2.051703
    114          1           0       10.148594   -2.761637   -0.734294
    115          1           0       11.378598    0.807250    0.272872
    116          1           0       11.430140   -0.979600    0.716952
    117          1           0       12.887453   -1.574848   -1.190561
    118          1           0       13.021697    0.282680   -1.652776
    119          1           0       13.874106    0.785662    0.456322
    120          1           0       14.152909   -0.853583    0.939267
    121          1           0       15.274712    0.498141   -1.375592
    122          1           0       15.985577   -2.163511   -0.082519
    123          1           0       15.041782   -1.898285   -1.583264
    124          1           0       16.744710   -1.572817   -1.431096
    125          1           0       15.979689    1.392097    0.577769
    126          1           0       16.409501   -0.062899    1.437580
    127          1           0       18.273417   -0.351529   -0.431289
    128          1           0       17.869923    0.951744   -1.275556
    129          1           0       18.273708    2.309883    1.011053
    130          1           0       18.699633    0.720314    1.757963
    131          1           0       20.815634    0.487932    0.209882
    132          1           0       19.963541    3.309006   -0.911265
    133          1           0       21.354287    2.462610   -1.048313
    134          1           0       20.235748    1.494376   -1.905046
    135          1           0       21.379993    1.557562    2.460850
    136          1           0       22.069242    2.287004    1.007683
    137          1           0       20.916953    3.148508    1.730844
 ---------------------------------------------------------------------

 SCF Done:  E(RCAM-B3LYP) =  -2932.58656821     A.U. after   18 cycles

 Excitation energies and oscillator strengths:

 Excited State   1:      Singlet-A      1.9692 eV  629.63 nm  f=0.3136  <S**2>=0.000
     240 -> 243        0.21466
     241 -> 242        0.66342
 This state for optimization and/or second-order correction.
 Total Energy, E(TD-HF/TD-KS) =  -2932.51420253
 Copying the excited state density for this state as the 1-particle RhoCI density.

 The electronic state is 1-A.
 Alpha  occ. eigenvalues --  -46.83731 -19.26509 -19.24661 -19.21047 -19.19997
 Alpha  occ. eigenvalues --  -19.18341 -14.42135 -14.40223 -14.39874 -14.39381
 Alpha  occ. eigenvalues --  -10.39031 -10.38035 -10.34106 -10.33496 -10.31039
 Alpha  occ. eigenvalues --  -10.30986 -10.30737 -10.30278 -10.30160 -10.29548
 Alpha  occ. eigenvalues --  -10.29469 -10.29299 -10.29272 -10.29197 -10.28873
 Alpha  occ. eigenvalues --  -10.28754 -10.28744 -10.28648 -10.28428 -10.28316
 Alpha  occ. eigenvalues --  -10.27949 -10.27802 -10.27783 -10.27557 -10.27418
 Alpha  occ. eigenvalues --  -10.27372 -10.27323 -10.27256 -10.27171 -10.26874
 Alpha  occ. eigenvalues --  -10.26837 -10.26760 -10.26650 -10.26572 -10.26507
 Alpha  occ. eigenvalues --  -10.26482 -10.26443 -10.26415 -10.26388 -10.26197
 Alpha  occ. eigenvalues --  -10.26174 -10.26081 -10.25788 -10.25712 -10.25613
 Alpha  occ. eigenvalues --  -10.25497 -10.25447 -10.25351 -10.25310 -10.24736
 Alpha  occ. eigenvalues --  -10.24502 -10.24442 -10.24383 -10.23477 -10.22319
 Alpha  occ. eigenvalues --   -3.13113  -1.87789  -1.87359  -1.87318  -1.19109
 Alpha  occ. eigenvalues --   -1.15935  -1.10669  -1.07615  -1.06527  -1.05597
 Alpha  occ. eigenvalues --   -1.04123  -1.03521  -1.01970  -0.92155  -0.91533
 Alpha  occ. eigenvalues --   -0.91020  -0.90268  -0.90078  -0.89926  -0.89065
 Alpha  occ. eigenvalues --   -0.88791  -0.88260  -0.88160  -0.87989  -0.86060
 Alpha  occ. eigenvalues --   -0.85206  -0.84661  -0.83881  -0.83252  -0.82756
 Alpha  occ. eigenvalues --   -0.81970  -0.81307  -0.80689  -0.79948  -0.78939
 Alpha  occ. eigenvalues --   -0.78620  -0.76403  -0.76334  -0.76106  -0.75691
 Alpha  occ. eigenvalues --   -0.75269  -0.74903  -0.74376  -0.73910  -0.72772
 Alpha  occ. eigenvalues --   -0.71565  -0.70508  -0.69383  -0.69037  -0.68656
 Alpha  occ. eigenvalues --   -0.67455  -0.66132  -0.65954  -0.65075  -0.64732
 Alpha  occ. eigenvalues --   -0.63541  -0.62800  -0.62670  -0.62095  -0.61277
 Alpha  occ. eigenvalues --   -0.61256  -0.60333  -0.60216  -0.59368  -0.59069
 Alpha  occ. eigenvalues --   -0.58426  -0.57671  -0.56902  -0.56644  -0.55954
 Alpha  occ. eigenvalues --   -0.55855  -0.55492  -0.55295  -0.55116  -0.54572
 Alpha  occ. eigenvalues --   -0.54459  -0.53973  -0.53609  -0.53483  -0.53256
 Alpha  occ. eigenvalues --   -0.52737  -0.52677  -0.52242  -0.52105  -0.52001
 Alpha  occ. eigenvalues --   -0.51777  -0.51399  -0.51080  -0.50625  -0.50492
 Alpha  occ. eigenvalues --   -0.50325  -0.50030  -0.49900  -0.49589  -0.49539
 Alpha  occ. eigenvalues --   -0.49194  -0.48984  -0.48481  -0.48385  -0.48101
 Alpha  occ. eigenvalues --   -0.47987  -0.47737  -0.47396  -0.47326  -0.47306
 Alpha  occ. eigenvalues --   -0.46783  -0.46663  -0.46366  -0.46350  -0.46150
 Alpha  occ. eigenvalues --   -0.45956  -0.45659  -0.45536  -0.45304  -0.45120
 Alpha  occ. eigenvalues --   -0.44817  -0.44503  -0.44384  -0.44296  -0.44107
 Alpha  occ. eigenvalues --   -0.43961  -0.43766  -0.43534  -0.43447  -0.43254
 Alpha  occ. eigenvalues --   -0.42978  -0.42733  -0.42617  -0.42580  -0.42240
 Alpha  occ. eigenvalues --   -0.42066  -0.41892  -0.41558  -0.41391  -0.41346
 Alpha  occ. eigenvalues --   -0.41134  -0.40835  -0.40735  -0.40549  -0.40476
 Alpha  occ. eigenvalues --   -0.39592  -0.39387  -0.39188  -0.38924  -0.38681
 Alpha  occ. eigenvalues --   -0.38665  -0.38541  -0.38180  -0.37949  -0.37609
 Alpha  occ. eigenvalues --   -0.37308  -0.37062  -0.36809  -0.36400  -0.36292
 Alpha  occ. eigenvalues --   -0.36252  -0.35871  -0.35638  -0.35264  -0.35161
 Alpha  occ. eigenvalues --   -0.34989  -0.34487  -0.34115  -0.33656  -0.33430
 Alpha  occ. eigenvalues --   -0.32830  -0.32786  -0.32555  -0.30957  -0.30860
 Alpha  occ. eigenvalues --   -0.29730  -0.28953  -0.28691  -0.28650  -0.23414
 Alpha  occ. eigenvalues --   -0.21310
 Alpha virt. eigenvalues --   -0.07301  -0.02768   0.00983   0.04694   0.05111
 Alpha virt. eigenvalues --    0.06112   0.06672   0.06856   0.07155   0.07543
 Alpha virt. eigenvalues --    0.07675   0.09528   0.10010   0.10359   0.10861

 Mulliken charges:
               1
     1  Mg   0.831705
     2  C    0.044746
     3  C   -0.193927
     4  C   -0.171214
     5  C   -0.192817
     6  N   -0.636454
     7  C    0.341042
     8  C   -0.143518
     9  C   -0.145164
    10  C    0.310770
    11  C   -0.294663
    12  C   -0.166677
    13  C   -0.275721
    14  C    0.618655
    15  O   -0.446561
    16  O   -0.467443
    17  N   -0.760032
    18  C    0.303346
    19  C    0.084438
    20  C   -0.047583
    21  C    0.362864
    22  C   -0.411406
    23  C   -0.060404
    24  C   -0.246490
    25  N   -0.703619
    26  C    0.315780
    27  C    0.026666
    28  C    0.001018
    29  C    0.300446
    30  C   -0.355245
    31  C   -0.225065
    32  C   -0.293669
    33  N   -0.700715
    34  C    0.208236
    35  C    0.106065
    36  C    0.032370
    37  C    0.320449
    38  C   -0.378615
    39  C    0.324297
    40  O   -0.500962
    41  C   -0.320158
    42  C    0.638042
    43  O   -0.502288
    44  O   -0.451868
    45  C   -0.077839
    46  C    0.025294
    47  C   -0.137430
    48  C    0.111178
    49  C   -0.326937
    50  C   -0.239857
    51  C   -0.153750
    52  C   -0.150366
    53  C   -0.067109
    54  C   -0.312399
    55  C   -0.167731
    56  C   -0.185526
    57  C   -0.153110
    58  C   -0.091039
    59  C   -0.306458
    60  C   -0.147284
    61  C   -0.196468
    62  C   -0.142096
    63  C   -0.056969
    64  C   -0.299724
    65  C   -0.331584
    66  H    0.098863
    67  H    0.098055
    68  H    0.098409
    69  H    0.141357
    70  H    0.104693
    71  H    0.113370
    72  H    0.094533
    73  H    0.132888
    74  H    0.078682
    75  H    0.096216
    76  H    0.115404
    77  H    0.144140
    78  H    0.138987
    79  H    0.100584
    80  H    0.112966
    81  H    0.086180
    82  H    0.116212
    83  H    0.098201
    84  H    0.111388
    85  H    0.113178
    86  H    0.108194
    87  H    0.104800
    88  H    0.080690
    89  H    0.093251
    90  H    0.109233
    91  H    0.122671
    92  H    0.120817
    93  H    0.153624
    94  H    0.097860
    95  H    0.154882
    96  H    0.096127
    97  H    0.144865
    98  H    0.122291
    99  H    0.135669
   100  H    0.082207
   101  H    0.079600
   102  H    0.093484
   103  H    0.104156
   104  H    0.145107
   105  H    0.087036
   106  H    0.092430
   107  H    0.088932
   108  H    0.105319
   109  H    0.096891
   110  H    0.064040
   111  H    0.061551
   112  H    0.089834
   113  H    0.114224
   114  H    0.117209
   115  H    0.065543
   116  H    0.086844
   117  H    0.103733
   118  H    0.069581
   119  H    0.099338
   120  H    0.092230
   121  H    0.068500
   122  H    0.089316
   123  H    0.096987
   124  H    0.110526
   125  H    0.086027
   126  H    0.073761
   127  H    0.064684
   128  H    0.100977
   129  H    0.081114
   130  H    0.098428
   131  H    0.084118
   132  H    0.107599
   133  H    0.119591
   134  H    0.071700
   135  H    0.112812
   136  H    0.091861
   137  H    0.091980
 Sum of Mulliken charges =   0.00000

 Dipole moment (field-independent basis, Debye):
    X=              1.5422    Y=              5.8839    Z=              0.2212  Tot=              6.0867
 Quadrupole moment (field-independent basis, Debye-Ang):
   XX=           -316.6286   YY=           -399.7099   ZZ=           -400.9137
   XY=            -27.5016   XZ=              8.1413   YZ=              1.9439

 Normal termination of Gaussian 09 at Wed Jun 26 23:08:41 2019.
