 Gaussian 09, Revision D.01,
 Gaussian 09:  ES64L-G09RevD.01 24-Apr-2013

 -------------------------------------
 # td=(NStates=1) CAM-B3LYP/6-31G(d,p)
 -------------------------------------

 --
 TD
 --
 Symbolic Z-matrix:
 Charge =  0 Multiplicity = 1

                         Standard orientation:
 ---------------------------------------------------------------------
 Center     Atomic      Atomic             Coordinates (Angstroms)
 Number     Number       Type             X           Y           Z
 ---------------------------------------------------------------------
      1         12           0       -7.178840    0.650356    0.147342
      2          6           0       -4.834023   -2.007303    0.477928
      3          6           0       -4.790677    2.839598    1.263113
      4          6           0       -9.419727    3.104496   -0.273405
      5          6           0       -9.502799   -1.727419   -0.948825
      6          7           0       -5.223904    0.420224    0.744372
      7          6           0       -4.359904   -0.766277    0.804323
      8          6           0       -2.985491   -0.410729    1.281877
      9          6           0       -3.053438    0.998096    1.822577
     10          6           0       -4.411962    1.468458    1.153836
     11          6           0       -2.954380    1.164389    3.370139
     12          6           0       -1.940215   -0.414623    0.197999
     13          6           0       -0.413896   -0.383979    0.702175
     14          6           0        0.453890   -0.609754   -0.487475
     15          8           0        0.191566   -0.950725   -1.635382
     16          8           0        1.734487   -0.342730   -0.016519
     17          7           0       -7.164417    2.558421    0.395590
     18          6           0       -6.017130    3.303633    0.848354
     19          6           0       -6.393196    4.705788    0.790804
     20          6           0       -7.644068    4.827179    0.289794
     21          6           0       -8.150293    3.501996    0.154748
     22          6           0       -5.592490    5.771860    1.464479
     23          6           0       -8.564138    6.011654    0.198938
     24          6           0       -8.233735    7.318856    0.035414
     25          7           0       -9.180664    0.639583   -0.507510
     26          6           0       -9.808237    1.836290   -0.665034
     27          6           0      -11.190897    1.461537   -1.046571
     28          6           0      -11.292734    0.124556   -1.208621
     29          6           0       -9.884479   -0.387783   -0.861579
     30          6           0      -12.285879    2.576153   -1.422394
     31          6           0      -12.406569   -0.678989   -1.748678
     32          6           0      -12.318092   -0.931428   -3.312136
     33          7           0       -7.217692   -1.458960   -0.194890
     34          6           0       -8.267380   -2.277923   -0.475624
     35          6           0       -7.811475   -3.644516   -0.545813
     36          6           0       -6.577295   -3.646753   -0.152161
     37          6           0       -6.102267   -2.225341   -0.014274
     38          6           0       -8.589197   -4.836472   -0.977475
     39          6           0       -5.276541   -4.386051    0.051152
     40          8           0       -5.048044   -5.620051    0.005861
     41          6           0       -4.145612   -3.380297    0.508295
     42          6           0       -3.623543   -3.693589    1.883459
     43          8           0       -3.909582   -3.154510    2.932341
     44          8           0       -2.754839   -4.781302    1.706210
     45          6           0       -2.254910   -5.232529    2.867166
     46          6           0        2.755988   -0.683555   -1.065718
     47          6           0        4.104310   -0.326532   -0.528441
     48          6           0        5.133654    0.371948   -0.994115
     49          6           0        5.023244    1.319969   -2.191117
     50          6           0        6.486134    0.486721   -0.208003
     51          6           0        7.644835   -0.139550   -1.061336
     52          6           0        9.006715   -0.182335   -0.219638
     53          6           0       10.204866   -0.611028   -0.966722
     54          6           0       10.202360   -1.921772   -1.561715
     55          6           0       11.405778   -0.350555   -0.046809
     56          6           0       12.870447   -0.659012   -0.667910
     57          6           0       13.977099   -0.219343    0.275021
     58          6           0       15.299225   -0.188026   -0.456736
     59          6           0       15.785971   -1.572330   -0.883628
     60          6           0       16.308662    0.405414    0.505612
     61          6           0       17.805837    0.610673   -0.162457
     62          6           0       18.795648    1.325319    0.773665
     63          6           0       20.263607    1.329864    0.193126
     64          6           0       20.406095    2.108160   -1.051976
     65          6           0       21.196750    1.878367    1.279194
     66          1           0       -4.026515    3.533715    1.513641
     67          1           0       -9.946079    4.077332   -0.703672
     68          1           0      -10.245093   -2.598249   -1.142542
     69          1           0       -2.754900   -1.169649    2.092783
     70          1           0       -2.191825    1.756030    1.450647
     71          1           0       -1.962313    0.554104    3.778253
     72          1           0       -3.083165    2.275495    3.558652
     73          1           0       -3.849721    0.557608    3.711067
     74          1           0       -1.908815   -1.515573   -0.551773
     75          1           0       -2.182105    0.435421   -0.677878
     76          1           0       -0.110776    0.633941    1.233986
     77          1           0       -0.383596   -1.078978    1.394207
     78          1           0       -4.821516    6.297389    0.747616
     79          1           0       -6.160741    6.504946    1.856460
     80          1           0       -4.940679    5.466304    2.238436
     81          1           0       -9.663442    5.737592    0.115676
     82          1           0       -9.120742    8.072612    0.149275
     83          1           0       -7.100833    7.463084    0.133468
     84          1           0      -11.828595    3.116837   -2.141752
     85          1           0      -13.201153    2.078512   -1.862572
     86          1           0      -12.730923    3.210037   -0.707923
     87          1           0      -12.531808   -1.808547   -1.198487
     88          1           0      -13.478217   -0.410790   -1.370713
     89          1           0      -13.044400   -1.821282   -3.626631
     90          1           0      -12.478936    0.096810   -3.810647
     91          1           0      -11.311694   -1.170475   -3.473934
     92          1           0       -9.113463   -4.922612   -1.891576
     93          1           0       -7.840975   -5.735276   -0.915408
     94          1           0       -9.541234   -4.918666   -0.118211
     95          1           0       -3.556259   -3.697897   -0.342276
     96          1           0       -1.547756   -4.693813    3.409767
     97          1           0       -3.123974   -5.322490    3.739774
     98          1           0       -1.904428   -6.299327    2.622771
     99          1           0        2.664552   -1.817949   -1.229873
    100          1           0        2.577848   -0.194281   -1.886697
    101          1           0        4.455643   -0.970408    0.291061
    102          1           0        4.087836    1.485936   -2.399023
    103          1           0        5.297546    2.216765   -1.966992
    104          1           0        5.620915    0.911749   -2.994937
    105          1           0        6.829661    1.509703    0.104072
    106          1           0        6.350711   -0.027190    0.611161
    107          1           0        7.063334   -1.115826   -1.322287
    108          1           0        8.131427    0.435572   -2.137944
    109          1           0        9.071290    0.856982   -0.128650
    110          1           0        9.010863   -0.789023    0.812710
    111          1           0       10.337362    0.388171   -1.774602
    112          1           0        9.299985   -2.105071   -2.200642
    113          1           0       11.066855   -2.090198   -2.221545
    114          1           0       10.148521   -2.801086   -0.758667
    115          1           0       11.243875    0.648576    0.450117
    116          1           0       11.377792   -1.270948    0.871327
    117          1           0       12.905072   -1.462551   -1.171323
    118          1           0       13.154271    0.165204   -1.498129
    119          1           0       13.688863    0.854434    0.607841
    120          1           0       14.090193   -0.803138    1.082743
    121          1           0       15.331869    0.241580   -1.429200
    122          1           0       15.849200   -2.302933   -0.055662
    123          1           0       15.110118   -1.924752   -1.684984
    124          1           0       16.672967   -1.572841   -1.431449
    125          1           0       15.945951    1.329306    0.749419
    126          1           0       16.590054   -0.316891    1.311959
    127          1           0       18.201841   -0.307259   -0.563751
    128          1           0       17.601371    1.012918   -1.043192
    129          1           0       18.437887    2.435499    0.879028
    130          1           0       18.761842    0.773732    1.864722
    131          1           0       20.611058    0.258056   -0.053804
    132          1           0       19.976556    3.170920   -1.074500
    133          1           0       21.615395    2.185252   -1.406937
    134          1           0       19.841187    1.611057   -1.825470
    135          1           0       21.216920    1.546375    2.407872
    136          1           0       22.333740    1.872848    0.988403
    137          1           0       20.851733    3.001858    1.325396
 ---------------------------------------------------------------------

 SCF Done:  E(RCAM-B3LYP) =  -2932.54885329     A.U. after   19 cycles

 Excitation energies and oscillator strengths:

 Excited State   1:      Singlet-A      1.8753 eV  661.15 nm  f=0.2831  <S**2>=0.000
     240 -> 243       -0.21306
     241 -> 242        0.67261
 This state for optimization and/or second-order correction.
 Total Energy, E(TD-HF/TD-KS) =  -2932.47993797
 Copying the excited state density for this state as the 1-particle RhoCI density.

 The electronic state is 1-A.
 Alpha  occ. eigenvalues --  -46.84039 -19.27012 -19.25997 -19.23425 -19.22195
 Alpha  occ. eigenvalues --  -19.20930 -14.43273 -14.39715 -14.39673 -14.39666
 Alpha  occ. eigenvalues --  -10.40924 -10.39900 -10.36525 -10.32273 -10.31530
 Alpha  occ. eigenvalues --  -10.31512 -10.31181 -10.30399 -10.30162 -10.29545
 Alpha  occ. eigenvalues --  -10.29468 -10.29432 -10.29400 -10.29316 -10.29055
 Alpha  occ. eigenvalues --  -10.29050 -10.28777 -10.28517 -10.28370 -10.28298
 Alpha  occ. eigenvalues --  -10.28228 -10.28224 -10.28133 -10.27821 -10.27809
 Alpha  occ. eigenvalues --  -10.27721 -10.27716 -10.27657 -10.27651 -10.27499
 Alpha  occ. eigenvalues --  -10.27324 -10.27251 -10.27123 -10.27089 -10.26847
 Alpha  occ. eigenvalues --  -10.26610 -10.26554 -10.26462 -10.26173 -10.26141
 Alpha  occ. eigenvalues --  -10.26139 -10.25996 -10.25936 -10.25844 -10.25774
 Alpha  occ. eigenvalues --  -10.25764 -10.25591 -10.25052 -10.25000 -10.24780
 Alpha  occ. eigenvalues --  -10.24603 -10.24366 -10.23736 -10.23728 -10.22827
 Alpha  occ. eigenvalues --   -3.13230  -1.87924  -1.87468  -1.87425  -1.19406
 Alpha  occ. eigenvalues --   -1.16609  -1.11784  -1.09488  -1.08652  -1.04832
 Alpha  occ. eigenvalues --   -1.03771  -1.02754  -1.01690  -0.93018  -0.91593
 Alpha  occ. eigenvalues --   -0.90952  -0.90370  -0.89979  -0.89209  -0.88843
 Alpha  occ. eigenvalues --   -0.88623  -0.88198  -0.87370  -0.86774  -0.86231
 Alpha  occ. eigenvalues --   -0.84967  -0.84273  -0.83444  -0.83125  -0.81924
 Alpha  occ. eigenvalues --   -0.81528  -0.81391  -0.80626  -0.80361  -0.78654
 Alpha  occ. eigenvalues --   -0.78493  -0.77484  -0.76761  -0.76050  -0.75782
 Alpha  occ. eigenvalues --   -0.75377  -0.74636  -0.74390  -0.73178  -0.72760
 Alpha  occ. eigenvalues --   -0.71610  -0.69709  -0.69020  -0.68862  -0.68195
 Alpha  occ. eigenvalues --   -0.66743  -0.66180  -0.65691  -0.64786  -0.64589
 Alpha  occ. eigenvalues --   -0.63991  -0.63705  -0.63286  -0.62860  -0.61698
 Alpha  occ. eigenvalues --   -0.61000  -0.60759  -0.60194  -0.60138  -0.59427
 Alpha  occ. eigenvalues --   -0.58958  -0.58560  -0.57955  -0.57458  -0.56571
 Alpha  occ. eigenvalues --   -0.56427  -0.56067  -0.55889  -0.55497  -0.55299
 Alpha  occ. eigenvalues --   -0.55087  -0.54776  -0.54154  -0.53335  -0.53131
 Alpha  occ. eigenvalues --   -0.52907  -0.52241  -0.52055  -0.51818  -0.51584
 Alpha  occ. eigenvalues --   -0.51539  -0.51338  -0.51081  -0.50588  -0.50530
 Alpha  occ. eigenvalues --   -0.50336  -0.49992  -0.49722  -0.49638  -0.49589
 Alpha  occ. eigenvalues --   -0.49416  -0.49292  -0.48841  -0.48531  -0.48326
 Alpha  occ. eigenvalues --   -0.48152  -0.48002  -0.47753  -0.47480  -0.47213
 Alpha  occ. eigenvalues --   -0.46940  -0.46820  -0.46566  -0.46364  -0.46038
 Alpha  occ. eigenvalues --   -0.45879  -0.45452  -0.45245  -0.45030  -0.44871
 Alpha  occ. eigenvalues --   -0.44706  -0.44660  -0.44305  -0.43986  -0.43829
 Alpha  occ. eigenvalues --   -0.43718  -0.43587  -0.43407  -0.43158  -0.43086
 Alpha  occ. eigenvalues --   -0.42982  -0.42793  -0.42669  -0.42537  -0.42218
 Alpha  occ. eigenvalues --   -0.42014  -0.41963  -0.41732  -0.41431  -0.41340
 Alpha  occ. eigenvalues --   -0.40947  -0.40937  -0.40711  -0.40205  -0.40178
 Alpha  occ. eigenvalues --   -0.39929  -0.39524  -0.39504  -0.39402  -0.38995
 Alpha  occ. eigenvalues --   -0.38834  -0.38511  -0.37958  -0.37845  -0.37495
 Alpha  occ. eigenvalues --   -0.37471  -0.37240  -0.37131  -0.36994  -0.36651
 Alpha  occ. eigenvalues --   -0.36597  -0.36256  -0.36112  -0.35990  -0.35836
 Alpha  occ. eigenvalues --   -0.35529  -0.35401  -0.35273  -0.34398  -0.34027
 Alpha  occ. eigenvalues --   -0.32963  -0.32648  -0.32638  -0.31882  -0.30719
 Alpha  occ. eigenvalues --   -0.30305  -0.30032  -0.28962  -0.28054  -0.24097
 Alpha  occ. eigenvalues --   -0.20797
 Alpha virt. eigenvalues --   -0.07011  -0.03233   0.00680   0.03117   0.04250
 Alpha virt. eigenvalues --    0.05070   0.05836   0.06042   0.06330   0.06641
 Alpha virt. eigenvalues --    0.07372   0.09761   0.09903   0.11173   0.11351

 Mulliken charges:
               1
     1  Mg   0.831977
     2  C    0.090989
     3  C   -0.201518
     4  C   -0.167844
     5  C   -0.151569
     6  N   -0.628739
     7  C    0.284284
     8  C   -0.166310
     9  C   -0.129508
    10  C    0.325128
    11  C   -0.285543
    12  C   -0.161711
    13  C   -0.249546
    14  C    0.637581
    15  O   -0.474965
    16  O   -0.507052
    17  N   -0.750901
    18  C    0.324686
    19  C    0.009740
    20  C    0.027128
    21  C    0.284721
    22  C   -0.382629
    23  C   -0.070182
    24  C   -0.257547
    25  N   -0.674249
    26  C    0.287581
    27  C   -0.008156
    28  C    0.039798
    29  C    0.310417
    30  C   -0.370013
    31  C   -0.258696
    32  C   -0.294184
    33  N   -0.682124
    34  C    0.249749
    35  C    0.013353
    36  C    0.053901
    37  C    0.218053
    38  C   -0.374264
    39  C    0.336594
    40  O   -0.470216
    41  C   -0.291115
    42  C    0.657373
    43  O   -0.459097
    44  O   -0.424443
    45  C   -0.089649
    46  C    0.034287
    47  C   -0.138565
    48  C    0.070329
    49  C   -0.341592
    50  C   -0.204880
    51  C   -0.177928
    52  C   -0.150299
    53  C   -0.028535
    54  C   -0.306495
    55  C   -0.149581
    56  C   -0.162100
    57  C   -0.146205
    58  C   -0.082457
    59  C   -0.319121
    60  C   -0.165092
    61  C   -0.209293
    62  C   -0.150531
    63  C   -0.048525
    64  C   -0.287264
    65  C   -0.288769
    66  H    0.091958
    67  H    0.093664
    68  H    0.102220
    69  H    0.121772
    70  H    0.088598
    71  H    0.097643
    72  H    0.111470
    73  H    0.125774
    74  H    0.078319
    75  H    0.099181
    76  H    0.129839
    77  H    0.152988
    78  H    0.101163
    79  H    0.134620
    80  H    0.120601
    81  H    0.092986
    82  H    0.112831
    83  H    0.103600
    84  H    0.132396
    85  H    0.102926
    86  H    0.122120
    87  H    0.062878
    88  H    0.100440
    89  H    0.096125
    90  H    0.105477
    91  H    0.125968
    92  H    0.138502
    93  H    0.139002
    94  H    0.085758
    95  H    0.182592
    96  H    0.122456
    97  H    0.090171
    98  H    0.114627
    99  H    0.123910
   100  H    0.130826
   101  H    0.075828
   102  H    0.110617
   103  H    0.122727
   104  H    0.121981
   105  H    0.097282
   106  H    0.114768
   107  H    0.087297
   108  H    0.057928
   109  H    0.107987
   110  H    0.077070
   111  H    0.038254
   112  H    0.106395
   113  H    0.110620
   114  H    0.088383
   115  H    0.088740
   116  H    0.033049
   117  H    0.104752
   118  H    0.057817
   119  H    0.081511
   120  H    0.101516
   121  H    0.087473
   122  H    0.096670
   123  H    0.087301
   124  H    0.109014
   125  H    0.095522
   126  H    0.092082
   127  H    0.090275
   128  H    0.099712
   129  H    0.081120
   130  H    0.075562
   131  H    0.083323
   132  H    0.095247
   133  H    0.074036
   134  H    0.108842
   135  H    0.090605
   136  H    0.083207
   137  H    0.081418
 Sum of Mulliken charges =   0.00000

 Dipole moment (field-independent basis, Debye):
    X=              2.1336    Y=              4.3965    Z=              0.3085  Tot=              4.8966
 Quadrupole moment (field-independent basis, Debye-Ang):
   XX=           -373.6604   YY=           -397.9645   ZZ=           -400.8842
   XY=            -24.7433   XZ=              0.1428   YZ=              2.3057

 Normal termination of Gaussian 09 at Sat Jun 29 02:42:06 2019.
