 Gaussian 09, Revision D.01,
 Gaussian 09:  ES64L-G09RevD.01 24-Apr-2013

 -------------------------------------
 # td=(NStates=1) CAM-B3LYP/6-31G(d,p)
 -------------------------------------

 --
 TD
 --
 Symbolic Z-matrix:
 Charge =  0 Multiplicity = 1

                         Standard orientation:
 ---------------------------------------------------------------------
 Center     Atomic      Atomic             Coordinates (Angstroms)
 Number     Number       Type             X           Y           Z
 ---------------------------------------------------------------------
      1         12           0       -7.195809    0.608261    0.129505
      2          6           0       -4.742754   -1.927959    0.491101
      3          6           0       -4.842481    2.911156    1.112622
      4          6           0       -9.459459    3.000177   -0.288177
      5          6           0       -9.533154   -1.943734   -0.842179
      6          7           0       -5.094988    0.436513    0.753958
      7          6           0       -4.272789   -0.678135    0.822982
      8          6           0       -2.858182   -0.320517    1.123690
      9          6           0       -3.036611    1.105240    1.671793
     10          6           0       -4.344536    1.531922    1.117608
     11          6           0       -3.026816    1.185671    3.134225
     12          6           0       -1.951881   -0.555276    0.010002
     13          6           0       -0.454474   -0.469596    0.486744
     14          6           0        0.486700   -0.582428   -0.610906
     15          8           0        0.253704   -0.952904   -1.720595
     16          8           0        1.801056   -0.406412   -0.215966
     17          7           0       -7.152182    2.619774    0.317537
     18          6           0       -6.138837    3.382169    0.782089
     19          6           0       -6.536515    4.757710    0.772985
     20          6           0       -7.874762    4.843618    0.404224
     21          6           0       -8.212088    3.389815    0.102317
     22          6           0       -5.666184    5.812280    1.390496
     23          6           0       -8.725335    5.902429    0.213567
     24          6           0       -8.286007    7.221178    0.126071
     25          7           0       -9.155012    0.521600   -0.518731
     26          6           0       -9.906778    1.728634   -0.629041
     27          6           0      -11.190818    1.387684   -1.027850
     28          6           0      -11.197257   -0.014964   -1.222740
     29          6           0       -9.996128   -0.534616   -0.839462
     30          6           0      -12.353843    2.250875   -1.351559
     31          6           0      -12.248840   -0.895893   -1.818471
     32          6           0      -12.213272   -1.158484   -3.229340
     33          7           0       -7.268599   -1.419806   -0.068018
     34          6           0       -8.227557   -2.284179   -0.491088
     35          6           0       -7.766281   -3.619554   -0.449630
     36          6           0       -6.404733   -3.539340   -0.163199
     37          6           0       -6.148019   -2.160225    0.128893
     38          6           0       -8.601343   -4.741202   -0.815370
     39          6           0       -5.276196   -4.356282    0.116118
     40          8           0       -5.042626   -5.604766   -0.111609
     41          6           0       -4.121619   -3.321306    0.517486
     42          6           0       -3.566267   -3.620257    1.870930
     43          8           0       -3.748652   -3.050863    2.903375
     44          8           0       -2.667752   -4.666210    1.698107
     45          6           0       -2.107092   -5.274624    2.833485
     46          6           0        2.881514   -0.552786   -1.118111
     47          6           0        4.172056   -0.222801   -0.457880
     48          6           0        5.114369    0.681140   -0.819301
     49          6           0        5.133958    1.546345   -2.050179
     50          6           0        6.434941    0.675587   -0.045259
     51          6           0        7.645985    0.065978   -0.775923
     52          6           0        8.967515    0.167241   -0.035062
     53          6           0       10.146828   -0.377978   -0.837919
     54          6           0       10.001337   -1.908728   -1.254120
     55          6           0       11.405846   -0.304976    0.064049
     56          6           0       12.683460   -0.610643   -0.622540
     57          6           0       13.938343   -0.117738    0.136037
     58          6           0       15.347656   -0.322655   -0.486410
     59          6           0       15.679359   -1.803797   -0.922257
     60          6           0       16.391148    0.218285    0.516813
     61          6           0       17.765217    0.537886   -0.323110
     62          6           0       18.912519    1.079592    0.678953
     63          6           0       20.309354    1.212201    0.066873
     64          6           0       20.213899    2.073382   -1.185277
     65          6           0       21.277240    1.840678    1.195725
     66          1           0       -3.998080    3.657328    1.316798
     67          1           0      -10.290988    3.567280   -0.452017
     68          1           0      -10.168326   -2.775531   -1.178006
     69          1           0       -2.729529   -0.943563    2.086320
     70          1           0       -2.460019    1.643954    1.125915
     71          1           0       -1.959624    1.052389    3.544807
     72          1           0       -3.431032    2.155102    3.769730
     73          1           0       -3.696591    0.551378    3.809050
     74          1           0       -2.053623   -1.392990   -0.473454
     75          1           0       -1.986562    0.410495   -0.725365
     76          1           0       -0.333723    0.475401    1.103055
     77          1           0       -0.169837   -1.300136    1.404106
     78          1           0       -5.121883    6.491818    0.618083
     79          1           0       -6.176574    6.415660    1.921304
     80          1           0       -4.770204    5.288197    1.880282
     81          1           0       -9.622417    5.763060    0.354303
     82          1           0       -9.143916    7.977591    0.100724
     83          1           0       -7.143833    7.573059    0.048516
     84          1           0      -12.009661    2.962732   -2.225558
     85          1           0      -13.220202    1.667375   -1.604559
     86          1           0      -12.621830    2.972064   -0.613039
     87          1           0      -12.105639   -1.750083   -1.109765
     88          1           0      -13.225128   -0.668664   -1.475727
     89          1           0      -13.131567   -1.448226   -3.643899
     90          1           0      -12.138105   -0.194796   -3.822933
     91          1           0      -11.269184   -1.560873   -3.471677
     92          1           0       -8.844135   -4.772435   -1.804634
     93          1           0       -7.997620   -5.619639   -0.636859
     94          1           0       -9.518246   -4.791688   -0.214554
     95          1           0       -3.177478   -3.624603   -0.354853
     96          1           0       -1.519430   -4.601176    3.506520
     97          1           0       -2.814198   -5.538217    3.402087
     98          1           0       -1.456526   -6.052322    2.340174
     99          1           0        3.004295   -1.630732   -1.584695
    100          1           0        2.396338    0.083434   -2.044741
    101          1           0        4.376417   -0.837760    0.385819
    102          1           0        4.041530    1.495938   -2.445380
    103          1           0        5.149860    2.728478   -1.785698
    104          1           0        5.864250    1.108991   -2.791412
    105          1           0        6.531820    1.705363    0.182861
    106          1           0        6.186650    0.321052    0.986668
    107          1           0        7.140726   -1.026747   -0.967521
    108          1           0        7.973187    0.518655   -1.705409
    109          1           0        9.146920    1.303967    0.302328
    110          1           0        8.782745   -0.475372    0.960497
    111          1           0       10.365839    0.099391   -1.736805
    112          1           0        8.791988   -2.305908   -1.453111
    113          1           0       10.597929   -2.199997   -1.981102
    114          1           0       10.422719   -2.496057   -0.346907
    115          1           0       11.365251    0.615647    0.530643
    116          1           0       11.221481   -0.931891    0.826034
    117          1           0       12.816415   -1.610982   -0.740554
    118          1           0       12.848530    0.029358   -1.590195
    119          1           0       13.817563    1.102570    0.301972
    120          1           0       13.991188   -0.566540    1.147255
    121          1           0       15.384847    0.390225   -1.336783
    122          1           0       15.799390   -2.154376    0.107967
    123          1           0       14.810866   -2.126285   -1.642533
    124          1           0       16.616171   -1.833938   -1.515644
    125          1           0       16.068067    1.087385    1.067209
    126          1           0       16.613140   -0.555727    1.261378
    127          1           0       18.202668   -0.231225   -1.020483
    128          1           0       17.508769    1.155333   -0.999050
    129          1           0       18.769080    1.993733    1.000217
    130          1           0       19.018599    0.258737    1.489582
    131          1           0       20.647765    0.091175   -0.083444
    132          1           0       20.002378    3.213493   -0.850916
    133          1           0       21.292214    2.025961   -1.638862
    134          1           0       19.321653    1.717658   -1.835949
    135          1           0       21.183458    0.988401    2.006762
    136          1           0       22.149112    1.942981    1.085199
    137          1           0       20.641198    2.730034    1.503024
 ---------------------------------------------------------------------

 SCF Done:  E(RCAM-B3LYP) =  -2932.54558583     A.U. after   16 cycles

 Excitation energies and oscillator strengths:

 Excited State   1:      Singlet-A      2.0435 eV  606.73 nm  f=0.1875  <S**2>=0.000
     240 -> 243        0.25785
     241 -> 242        0.63837
 This state for optimization and/or second-order correction.
 Total Energy, E(TD-HF/TD-KS) =  -2932.47048940
 Copying the excited state density for this state as the 1-particle RhoCI density.

 The electronic state is 1-A.
 Alpha  occ. eigenvalues --  -46.84487 -19.24978 -19.24709 -19.21967 -19.21341
 Alpha  occ. eigenvalues --  -19.20055 -14.41942 -14.39800 -14.39680 -14.37847
 Alpha  occ. eigenvalues --  -10.39385 -10.39218 -10.35566 -10.32971 -10.31956
 Alpha  occ. eigenvalues --  -10.30883 -10.30482 -10.30406 -10.30111 -10.29790
 Alpha  occ. eigenvalues --  -10.29554 -10.29439 -10.29184 -10.28596 -10.28557
 Alpha  occ. eigenvalues --  -10.28133 -10.28128 -10.28097 -10.27654 -10.27615
 Alpha  occ. eigenvalues --  -10.27611 -10.27470 -10.27459 -10.27408 -10.27270
 Alpha  occ. eigenvalues --  -10.27223 -10.26901 -10.26870 -10.26752 -10.26711
 Alpha  occ. eigenvalues --  -10.26689 -10.26513 -10.26120 -10.26034 -10.25959
 Alpha  occ. eigenvalues --  -10.25835 -10.25825 -10.25802 -10.25798 -10.25713
 Alpha  occ. eigenvalues --  -10.25647 -10.25614 -10.25477 -10.25417 -10.25337
 Alpha  occ. eigenvalues --  -10.25052 -10.24873 -10.24840 -10.24722 -10.24714
 Alpha  occ. eigenvalues --  -10.24486 -10.24303 -10.24004 -10.23958 -10.22976
 Alpha  occ. eigenvalues --   -3.13425  -1.88143  -1.87677  -1.87575  -1.17974
 Alpha  occ. eigenvalues --   -1.17793  -1.10240  -1.09545  -1.06870  -1.05155
 Alpha  occ. eigenvalues --   -1.04647  -1.03907  -1.01080  -0.92460  -0.91779
 Alpha  occ. eigenvalues --   -0.91164  -0.90355  -0.90125  -0.89580  -0.89178
 Alpha  occ. eigenvalues --   -0.88850  -0.88274  -0.88056  -0.87877  -0.86578
 Alpha  occ. eigenvalues --   -0.85373  -0.84566  -0.84064  -0.83329  -0.82503
 Alpha  occ. eigenvalues --   -0.81485  -0.81179  -0.80687  -0.79625  -0.78665
 Alpha  occ. eigenvalues --   -0.77933  -0.77254  -0.76545  -0.75877  -0.75576
 Alpha  occ. eigenvalues --   -0.75260  -0.74873  -0.74149  -0.73892  -0.73137
 Alpha  occ. eigenvalues --   -0.72564  -0.71129  -0.70332  -0.69705  -0.69099
 Alpha  occ. eigenvalues --   -0.68184  -0.67726  -0.66388  -0.65555  -0.65309
 Alpha  occ. eigenvalues --   -0.64971  -0.63430  -0.62297  -0.62111  -0.61877
 Alpha  occ. eigenvalues --   -0.61546  -0.60909  -0.60677  -0.60406  -0.59342
 Alpha  occ. eigenvalues --   -0.59123  -0.58918  -0.57709  -0.57068  -0.56470
 Alpha  occ. eigenvalues --   -0.56296  -0.55740  -0.55528  -0.55305  -0.55131
 Alpha  occ. eigenvalues --   -0.54946  -0.54445  -0.53974  -0.53798  -0.53493
 Alpha  occ. eigenvalues --   -0.53347  -0.52934  -0.52668  -0.52239  -0.52128
 Alpha  occ. eigenvalues --   -0.51845  -0.51312  -0.51081  -0.50862  -0.50479
 Alpha  occ. eigenvalues --   -0.50112  -0.50041  -0.49938  -0.49669  -0.49479
 Alpha  occ. eigenvalues --   -0.49354  -0.49090  -0.48980  -0.48706  -0.48637
 Alpha  occ. eigenvalues --   -0.48281  -0.48103  -0.47960  -0.47866  -0.47680
 Alpha  occ. eigenvalues --   -0.47522  -0.47310  -0.46795  -0.46659  -0.46529
 Alpha  occ. eigenvalues --   -0.46134  -0.45961  -0.45776  -0.45244  -0.45212
 Alpha  occ. eigenvalues --   -0.44996  -0.44666  -0.44500  -0.44392  -0.44123
 Alpha  occ. eigenvalues --   -0.43975  -0.43867  -0.43506  -0.43438  -0.43126
 Alpha  occ. eigenvalues --   -0.43032  -0.42873  -0.42434  -0.42381  -0.41973
 Alpha  occ. eigenvalues --   -0.41890  -0.41806  -0.41527  -0.41167  -0.41055
 Alpha  occ. eigenvalues --   -0.40916  -0.40873  -0.40629  -0.40538  -0.40160
 Alpha  occ. eigenvalues --   -0.40027  -0.39977  -0.39810  -0.39211  -0.38952
 Alpha  occ. eigenvalues --   -0.38514  -0.38211  -0.37865  -0.37821  -0.37684
 Alpha  occ. eigenvalues --   -0.37583  -0.37455  -0.37216  -0.36498  -0.36399
 Alpha  occ. eigenvalues --   -0.36208  -0.35730  -0.35703  -0.35582  -0.35568
 Alpha  occ. eigenvalues --   -0.35338  -0.34876  -0.34835  -0.34162  -0.33735
 Alpha  occ. eigenvalues --   -0.33382  -0.33007  -0.32341  -0.31031  -0.30088
 Alpha  occ. eigenvalues --   -0.29808  -0.29716  -0.27146  -0.26420  -0.23387
 Alpha  occ. eigenvalues --   -0.21505
 Alpha virt. eigenvalues --   -0.06678  -0.04099   0.00324   0.02734   0.04870
 Alpha virt. eigenvalues --    0.05083   0.06207   0.06343   0.06571   0.06877
 Alpha virt. eigenvalues --    0.08423   0.10680   0.11393   0.11760   0.12062

 Mulliken charges:
               1
     1  Mg   0.813985
     2  C    0.053601
     3  C   -0.230689
     4  C   -0.128577
     5  C   -0.158316
     6  N   -0.613909
     7  C    0.299614
     8  C   -0.181190
     9  C   -0.079783
    10  C    0.286284
    11  C   -0.320824
    12  C   -0.140529
    13  C   -0.278709
    14  C    0.623383
    15  O   -0.454408
    16  O   -0.496650
    17  N   -0.726236
    18  C    0.350810
    19  C   -0.010133
    20  C    0.034848
    21  C    0.326688
    22  C   -0.360031
    23  C   -0.043559
    24  C   -0.249812
    25  N   -0.722732
    26  C    0.262377
    27  C    0.027072
    28  C   -0.016768
    29  C    0.291836
    30  C   -0.375685
    31  C   -0.237363
    32  C   -0.299691
    33  N   -0.728526
    34  C    0.299896
    35  C    0.042204
    36  C    0.007363
    37  C    0.305259
    38  C   -0.394348
    39  C    0.352339
    40  O   -0.495126
    41  C   -0.329493
    42  C    0.631014
    43  O   -0.455932
    44  O   -0.468280
    45  C   -0.064959
    46  C    0.026047
    47  C   -0.115701
    48  C    0.094396
    49  C   -0.353423
    50  C   -0.224592
    51  C   -0.153025
    52  C   -0.166633
    53  C   -0.066762
    54  C   -0.303371
    55  C   -0.170518
    56  C   -0.169792
    57  C   -0.176560
    58  C   -0.076815
    59  C   -0.299725
    60  C   -0.182426
    61  C   -0.205197
    62  C   -0.147131
    63  C   -0.084849
    64  C   -0.282740
    65  C   -0.265055
    66  H    0.087589
    67  H    0.069766
    68  H    0.114719
    69  H    0.141890
    70  H    0.102273
    71  H    0.104411
    72  H    0.095415
    73  H    0.137909
    74  H    0.138632
    75  H    0.100615
    76  H    0.135412
    77  H    0.124157
    78  H    0.098450
    79  H    0.134856
    80  H    0.103204
    81  H    0.078133
    82  H    0.099435
    83  H    0.109330
    84  H    0.104093
    85  H    0.119047
    86  H    0.119142
    87  H    0.091560
    88  H    0.096134
    89  H    0.115122
    90  H    0.097774
    91  H    0.114854
    92  H    0.145065
    93  H    0.147171
    94  H    0.124912
    95  H    0.150020
    96  H    0.102368
    97  H    0.132361
    98  H    0.125764
    99  H    0.106032
   100  H    0.099819
   101  H    0.096770
   102  H    0.102134
   103  H    0.102568
   104  H    0.132120
   105  H    0.095706
   106  H    0.093569
   107  H    0.082871
   108  H    0.099808
   109  H    0.084265
   110  H    0.075875
   111  H    0.095415
   112  H    0.070240
   113  H    0.122109
   114  H    0.084273
   115  H    0.089657
   116  H    0.103405
   117  H    0.106651
   118  H    0.076694
   119  H    0.057607
   120  H    0.078896
   121  H    0.075672
   122  H    0.109409
   123  H    0.098348
   124  H    0.108987
   125  H    0.101825
   126  H    0.088427
   127  H    0.085033
   128  H    0.111030
   129  H    0.094490
   130  H    0.078824
   131  H    0.068382
   132  H    0.078508
   133  H    0.095390
   134  H    0.098228
   135  H    0.077953
   136  H    0.097582
   137  H    0.091409
 Sum of Mulliken charges =   0.00000

 Dipole moment (field-independent basis, Debye):
    X=              0.9492    Y=              4.7269    Z=              1.3061  Tot=              4.9951
 Quadrupole moment (field-independent basis, Debye-Ang):
   XX=           -341.9665   YY=           -396.9775   ZZ=           -398.4162
   XY=            -18.4991   XZ=              4.2885   YZ=             -2.2221

 Normal termination of Gaussian 09 at Fri Jun 28 13:38:14 2019.
