 Gaussian 09, Revision D.01,
 Gaussian 09:  ES64L-G09RevD.01 24-Apr-2013

 -------------------------------------
 # td=(NStates=1) CAM-B3LYP/6-31G(d,p)
 -------------------------------------

 --
 TD
 --
 Symbolic Z-matrix:
 Charge =  0 Multiplicity = 1

                         Standard orientation:
 ---------------------------------------------------------------------
 Center     Atomic      Atomic             Coordinates (Angstroms)
 Number     Number       Type             X           Y           Z
 ---------------------------------------------------------------------
      1         12           0       -7.180868    0.570058    0.109233
      2          6           0       -4.829807   -1.978620    0.456527
      3          6           0       -4.807769    2.813434    1.058014
      4          6           0       -9.386462    3.111304   -0.315911
      5          6           0       -9.488147   -1.683270   -0.917937
      6          7           0       -5.119942    0.446703    0.695653
      7          6           0       -4.380382   -0.747113    0.824374
      8          6           0       -2.848828   -0.431389    1.270385
      9          6           0       -3.055458    0.984613    1.745218
     10          6           0       -4.449858    1.514047    1.100657
     11          6           0       -2.983866    1.184708    3.285557
     12          6           0       -1.980588   -0.524572    0.158715
     13          6           0       -0.540784   -0.415744    0.514804
     14          6           0        0.540492   -0.606994   -0.590240
     15          8           0        0.229603   -0.909230   -1.655905
     16          8           0        1.752248   -0.400228   -0.105317
     17          7           0       -7.114105    2.568582    0.334292
     18          6           0       -6.092989    3.363376    0.848691
     19          6           0       -6.417124    4.795951    0.914670
     20          6           0       -7.779709    4.827945    0.513723
     21          6           0       -8.174961    3.550698    0.141682
     22          6           0       -5.538889    5.805604    1.397191
     23          6           0       -8.664117    5.973641    0.392302
     24          6           0       -8.231648    7.216914   -0.037909
     25          7           0       -9.160335    0.674599   -0.552684
     26          6           0       -9.896127    1.840669   -0.669086
     27          6           0      -11.149920    1.485510   -1.162193
     28          6           0      -11.271218    0.095185   -1.257270
     29          6           0       -9.939809   -0.329413   -0.994374
     30          6           0      -12.225051    2.575135   -1.436931
     31          6           0      -12.424862   -0.732027   -1.736948
     32          6           0      -12.363777   -1.168426   -3.183395
     33          7           0       -7.226181   -1.398651   -0.184932
     34          6           0       -8.283406   -2.306085   -0.601184
     35          6           0       -7.815949   -3.641810   -0.620019
     36          6           0       -6.481348   -3.588649   -0.074980
     37          6           0       -6.136528   -2.218135    0.033439
     38          6           0       -8.733215   -4.842051   -0.989067
     39          6           0       -5.326959   -4.371172    0.097604
     40          8           0       -5.023817   -5.606089    0.100797
     41          6           0       -4.209323   -3.362886    0.543499
     42          6           0       -3.624035   -3.713973    1.918925
     43          8           0       -3.761784   -3.109989    2.939138
     44          8           0       -2.864896   -4.842147    1.780829
     45          6           0       -2.221891   -5.209104    2.961441
     46          6           0        2.806574   -0.509142   -1.143258
     47          6           0        4.012048   -0.250584   -0.418806
     48          6           0        5.118959    0.444660   -0.787805
     49          6           0        5.029310    1.323704   -2.052830
     50          6           0        6.494996    0.379394   -0.060584
     51          6           0        7.608220   -0.292308   -0.870299
     52          6           0        8.940098   -0.181763   -0.123870
     53          6           0       10.220045   -0.589021   -0.916441
     54          6           0       10.128633   -2.096360   -1.304136
     55          6           0       11.516974   -0.180240   -0.112192
     56          6           0       12.842174   -0.395469   -0.881709
     57          6           0       14.016126   -0.140087    0.092285
     58          6           0       15.390771   -0.314084   -0.535557
     59          6           0       15.723782   -1.793177   -0.952369
     60          6           0       16.521039    0.318248    0.425729
     61          6           0       17.858233    0.547178   -0.290975
     62          6           0       18.845871    1.218098    0.776035
     63          6           0       20.349626    1.380746    0.208326
     64          6           0       20.389789    2.286864   -1.045755
     65          6           0       21.144526    1.931865    1.305623
     66          1           0       -4.150538    3.628826    1.698542
     67          1           0      -10.338527    3.907946   -0.652838
     68          1           0      -10.187259   -2.433596   -1.399183
     69          1           0       -2.471248   -1.028470    2.164093
     70          1           0       -2.259290    1.771244    1.315040
     71          1           0       -2.118409    0.999122    3.636844
     72          1           0       -3.387583    2.164340    3.849523
     73          1           0       -3.714415    0.463951    3.802829
     74          1           0       -2.121885   -1.333001   -0.410541
     75          1           0       -2.288952    0.212711   -0.585257
     76          1           0       -0.370953    0.561429    1.244647
     77          1           0       -0.007077   -1.181558    1.273654
     78          1           0       -4.728464    5.999449    0.570179
     79          1           0       -6.121754    6.717057    1.684735
     80          1           0       -4.950870    5.670895    2.407378
     81          1           0       -9.673394    5.718762    0.647152
     82          1           0       -8.947771    8.050176   -0.116228
     83          1           0       -7.167505    7.351962   -0.098226
     84          1           0      -12.084131    3.041596   -2.339370
     85          1           0      -13.270546    2.062383   -1.428557
     86          1           0      -12.240619    3.368416   -0.600033
     87          1           0      -12.547109   -1.744428   -1.130662
     88          1           0      -13.316278   -0.341520   -1.537336
     89          1           0      -13.409539   -1.579090   -3.355392
     90          1           0      -12.367924   -0.089637   -3.958748
     91          1           0      -11.500276   -1.714630   -3.480724
     92          1           0       -9.186225   -4.663060   -2.040847
     93          1           0       -8.153545   -5.786428   -1.116253
     94          1           0       -9.369495   -5.033522   -0.321293
     95          1           0       -3.362548   -3.608697   -0.167490
     96          1           0       -1.377752   -4.349961    3.507907
     97          1           0       -2.989329   -5.257490    3.913124
     98          1           0       -1.810051   -6.202424    2.686346
     99          1           0        2.668760   -1.708928   -1.533120
    100          1           0        2.598721    0.119065   -1.913105
    101          1           0        4.175023   -0.702885    0.573668
    102          1           0        4.003499    1.300660   -2.635432
    103          1           0        5.349393    2.382760   -1.814137
    104          1           0        5.812894    1.038419   -2.831479
    105          1           0        6.732381    1.414376    0.128980
    106          1           0        6.035124   -0.185987    0.748422
    107          1           0        7.548146   -1.431132   -0.859058
    108          1           0        7.883380    0.110226   -1.901426
    109          1           0        9.200168    0.908274    0.191468
    110          1           0        8.942308   -0.890779    0.658453
    111          1           0       10.382473    0.015972   -1.886379
    112          1           0        9.110320   -2.302591   -1.673439
    113          1           0       10.996036   -2.140215   -1.957807
    114          1           0       10.289197   -2.795388   -0.267065
    115          1           0       11.316601    0.735734    0.242686
    116          1           0       11.559802   -0.784884    0.784735
    117          1           0       12.976066   -1.364085   -1.306256
    118          1           0       12.863732    0.189896   -1.711859
    119          1           0       13.947380    0.904929    0.292416
    120          1           0       13.818110   -0.687031    1.101423
    121          1           0       15.586901    0.315561   -1.333631
    122          1           0       15.891708   -2.439337   -0.118763
    123          1           0       15.211643   -2.217862   -1.705121
    124          1           0       16.789738   -1.827252   -1.519416
    125          1           0       16.264837    1.311144    1.003008
    126          1           0       16.658043   -0.530955    1.170748
    127          1           0       18.095105   -0.495184   -0.660510
    128          1           0       17.724218    1.149868   -1.163881
    129          1           0       18.420113    2.218871    1.126508
    130          1           0       18.951008    0.559737    1.626934
    131          1           0       20.667326    0.496985   -0.170762
    132          1           0       20.195329    3.414382   -0.917067
    133          1           0       21.326292    2.218241   -1.650167
    134          1           0       19.563453    2.017898   -1.783077
    135          1           0       21.071070    1.166375    2.130898
    136          1           0       22.096614    2.247203    0.929682
    137          1           0       20.670991    2.852346    1.698169
 ---------------------------------------------------------------------

 SCF Done:  E(RCAM-B3LYP) =  -2932.66476131     A.U. after   17 cycles

 Excitation energies and oscillator strengths:

 Excited State   1:      Singlet-A      2.1468 eV  577.52 nm  f=0.2122  <S**2>=0.000
     240 -> 243        0.26531
     241 -> 242        0.63346
 This state for optimization and/or second-order correction.
 Total Energy, E(TD-HF/TD-KS) =  -2932.58586626
 Copying the excited state density for this state as the 1-particle RhoCI density.

 The electronic state is 1-A.
 Alpha  occ. eigenvalues --  -46.83858 -19.26176 -19.25828 -19.21359 -19.20499
 Alpha  occ. eigenvalues --  -19.19135 -14.41446 -14.39689 -14.39533 -14.38973
 Alpha  occ. eigenvalues --  -10.38956 -10.38077 -10.34491 -10.33040 -10.32766
 Alpha  occ. eigenvalues --  -10.31387 -10.30842 -10.30583 -10.30167 -10.29652
 Alpha  occ. eigenvalues --  -10.29625 -10.29439 -10.29330 -10.29267 -10.28927
 Alpha  occ. eigenvalues --  -10.28612 -10.28227 -10.28215 -10.28145 -10.28040
 Alpha  occ. eigenvalues --  -10.28014 -10.27889 -10.27854 -10.27771 -10.27627
 Alpha  occ. eigenvalues --  -10.27220 -10.27197 -10.27148 -10.27126 -10.27030
 Alpha  occ. eigenvalues --  -10.26727 -10.26689 -10.26524 -10.26452 -10.26412
 Alpha  occ. eigenvalues --  -10.26356 -10.26276 -10.26072 -10.26054 -10.25903
 Alpha  occ. eigenvalues --  -10.25828 -10.25800 -10.25791 -10.25770 -10.25221
 Alpha  occ. eigenvalues --  -10.25185 -10.25087 -10.25034 -10.24995 -10.24872
 Alpha  occ. eigenvalues --  -10.24756 -10.24297 -10.24000 -10.23981 -10.23920
 Alpha  occ. eigenvalues --   -3.12932  -1.87632  -1.87162  -1.87131  -1.19638
 Alpha  occ. eigenvalues --   -1.18683  -1.11373  -1.10302  -1.07241  -1.03931
 Alpha  occ. eigenvalues --   -1.03280  -1.02118  -1.01427  -0.92805  -0.91432
 Alpha  occ. eigenvalues --   -0.91131  -0.90043  -0.89655  -0.89123  -0.89023
 Alpha  occ. eigenvalues --   -0.88169  -0.88157  -0.87202  -0.86795  -0.85894
 Alpha  occ. eigenvalues --   -0.84768  -0.84073  -0.83468  -0.83197  -0.82672
 Alpha  occ. eigenvalues --   -0.81437  -0.81160  -0.80456  -0.79754  -0.78860
 Alpha  occ. eigenvalues --   -0.77586  -0.77085  -0.75908  -0.75789  -0.75465
 Alpha  occ. eigenvalues --   -0.75243  -0.74803  -0.73825  -0.73193  -0.72805
 Alpha  occ. eigenvalues --   -0.71307  -0.70658  -0.69718  -0.69446  -0.68801
 Alpha  occ. eigenvalues --   -0.67467  -0.66284  -0.65554  -0.65325  -0.64402
 Alpha  occ. eigenvalues --   -0.63632  -0.63572  -0.63047  -0.62705  -0.61735
 Alpha  occ. eigenvalues --   -0.61418  -0.60872  -0.60420  -0.59449  -0.58660
 Alpha  occ. eigenvalues --   -0.58429  -0.58262  -0.57079  -0.56665  -0.56158
 Alpha  occ. eigenvalues --   -0.56001  -0.55642  -0.55199  -0.54643  -0.54532
 Alpha  occ. eigenvalues --   -0.54308  -0.53874  -0.53652  -0.53437  -0.53220
 Alpha  occ. eigenvalues --   -0.52766  -0.52298  -0.52169  -0.51967  -0.51667
 Alpha  occ. eigenvalues --   -0.51380  -0.51235  -0.50957  -0.50835  -0.50654
 Alpha  occ. eigenvalues --   -0.50392  -0.50157  -0.50128  -0.49833  -0.49494
 Alpha  occ. eigenvalues --   -0.49279  -0.49052  -0.48740  -0.48315  -0.48060
 Alpha  occ. eigenvalues --   -0.47837  -0.47772  -0.47591  -0.47075  -0.46895
 Alpha  occ. eigenvalues --   -0.46668  -0.46435  -0.46265  -0.46132  -0.45868
 Alpha  occ. eigenvalues --   -0.45764  -0.45638  -0.45474  -0.45392  -0.45107
 Alpha  occ. eigenvalues --   -0.44808  -0.44738  -0.44373  -0.44247  -0.43986
 Alpha  occ. eigenvalues --   -0.43817  -0.43560  -0.43370  -0.43294  -0.42947
 Alpha  occ. eigenvalues --   -0.42717  -0.42637  -0.42416  -0.42080  -0.42041
 Alpha  occ. eigenvalues --   -0.41924  -0.41840  -0.41692  -0.41328  -0.41176
 Alpha  occ. eigenvalues --   -0.41105  -0.40936  -0.40727  -0.40474  -0.40438
 Alpha  occ. eigenvalues --   -0.40220  -0.39887  -0.39476  -0.39253  -0.39213
 Alpha  occ. eigenvalues --   -0.38998  -0.38178  -0.38012  -0.37717  -0.37648
 Alpha  occ. eigenvalues --   -0.37514  -0.37461  -0.37307  -0.37044  -0.36860
 Alpha  occ. eigenvalues --   -0.36741  -0.36368  -0.35778  -0.35504  -0.35454
 Alpha  occ. eigenvalues --   -0.35342  -0.35167  -0.34455  -0.33800  -0.33625
 Alpha  occ. eigenvalues --   -0.32741  -0.32570  -0.32141  -0.31305  -0.29563
 Alpha  occ. eigenvalues --   -0.29349  -0.29222  -0.28261  -0.27456  -0.23482
 Alpha  occ. eigenvalues --   -0.22557
 Alpha virt. eigenvalues --   -0.07258  -0.03700   0.00638   0.03810   0.05130
 Alpha virt. eigenvalues --    0.05817   0.06468   0.06818   0.07191   0.08037
 Alpha virt. eigenvalues --    0.09145   0.10548   0.11087   0.11334   0.12039

 Mulliken charges:
               1
     1  Mg   0.808751
     2  C    0.102347
     3  C   -0.218642
     4  C   -0.199155
     5  C   -0.173972
     6  N   -0.642654
     7  C    0.252173
     8  C   -0.139796
     9  C   -0.141914
    10  C    0.375493
    11  C   -0.310323
    12  C   -0.133496
    13  C   -0.274033
    14  C    0.606321
    15  O   -0.440856
    16  O   -0.480473
    17  N   -0.691426
    18  C    0.298091
    19  C    0.064228
    20  C    0.027064
    21  C    0.307099
    22  C   -0.409666
    23  C   -0.080856
    24  C   -0.240722
    25  N   -0.686023
    26  C    0.327920
    27  C   -0.020788
    28  C    0.051877
    29  C    0.276773
    30  C   -0.374689
    31  C   -0.229042
    32  C   -0.272581
    33  N   -0.728167
    34  C    0.277097
    35  C    0.024855
    36  C    0.013546
    37  C    0.288832
    38  C   -0.360969
    39  C    0.339862
    40  O   -0.498258
    41  C   -0.338015
    42  C    0.637853
    43  O   -0.455131
    44  O   -0.420607
    45  C   -0.069007
    46  C    0.024358
    47  C   -0.110908
    48  C    0.081052
    49  C   -0.366320
    50  C   -0.199882
    51  C   -0.172329
    52  C   -0.174325
    53  C   -0.087063
    54  C   -0.291355
    55  C   -0.167001
    56  C   -0.191958
    57  C   -0.166921
    58  C   -0.065225
    59  C   -0.322077
    60  C   -0.185259
    61  C   -0.185805
    62  C   -0.178871
    63  C   -0.041720
    64  C   -0.325826
    65  C   -0.292930
    66  H    0.070275
    67  H    0.076240
    68  H    0.084859
    69  H    0.125841
    70  H    0.086715
    71  H    0.124491
    72  H    0.089223
    73  H    0.111035
    74  H    0.124217
    75  H    0.117067
    76  H    0.101186
    77  H    0.110356
    78  H    0.125733
    79  H    0.122164
    80  H    0.117997
    81  H    0.103350
    82  H    0.111035
    83  H    0.110974
    84  H    0.140461
    85  H    0.100278
    86  H    0.108400
    87  H    0.087516
    88  H    0.115866
    89  H    0.106141
    90  H    0.050837
    91  H    0.124586
    92  H    0.113193
    93  H    0.142497
    94  H    0.149501
    95  H    0.163777
    96  H    0.073818
    97  H    0.111504
    98  H    0.127428
    99  H    0.110572
   100  H    0.132670
   101  H    0.086107
   102  H    0.097720
   103  H    0.110314
   104  H    0.110073
   105  H    0.113497
   106  H    0.107161
   107  H    0.099454
   108  H    0.102148
   109  H    0.069019
   110  H    0.103174
   111  H    0.064454
   112  H    0.108152
   113  H    0.111159
   114  H    0.065299
   115  H    0.098277
   116  H    0.086203
   117  H    0.097922
   118  H    0.098925
   119  H    0.097891
   120  H    0.081861
   121  H    0.094763
   122  H    0.113101
   123  H    0.119419
   124  H    0.067332
   125  H    0.074890
   126  H    0.081590
   127  H    0.091566
   128  H    0.098753
   129  H    0.087711
   130  H    0.097062
   131  H    0.100946
   132  H    0.086507
   133  H    0.095833
   134  H    0.091225
   135  H    0.091913
   136  H    0.099733
   137  H    0.098492
 Sum of Mulliken charges =   0.00000

 Dipole moment (field-independent basis, Debye):
    X=              0.6266    Y=              5.0988    Z=             -0.0101  Tot=              5.1372
 Quadrupole moment (field-independent basis, Debye-Ang):
   XX=           -319.3854   YY=           -394.2275   ZZ=           -398.6601
   XY=            -21.7624   XZ=              1.9795   YZ=              3.1532

 Normal termination of Gaussian 09 at Sun Jun 30 02:19:18 2019.
