 Gaussian 09, Revision D.01,
 Gaussian 09:  ES64L-G09RevD.01 24-Apr-2013

 -------------------------------------
 # td=(NStates=1) CAM-B3LYP/6-31G(d,p)
 -------------------------------------

 --
 TD
 --
 Symbolic Z-matrix:
 Charge =  0 Multiplicity = 1

                         Standard orientation:
 ---------------------------------------------------------------------
 Center     Atomic      Atomic             Coordinates (Angstroms)
 Number     Number       Type             X           Y           Z
 ---------------------------------------------------------------------
      1         12           0       -7.182436    0.624557    0.161534
      2          6           0       -4.966998   -2.061780    0.523923
      3          6           0       -4.830039    2.877184    1.232500
      4          6           0       -9.412740    3.069833   -0.358296
      5          6           0       -9.543496   -1.698709   -0.877746
      6          7           0       -5.123191    0.387719    0.751705
      7          6           0       -4.375642   -0.767768    0.894164
      8          6           0       -2.929918   -0.433878    1.278177
      9          6           0       -3.047950    1.122646    1.784646
     10          6           0       -4.433095    1.446340    1.259464
     11          6           0       -2.806033    1.175675    3.345364
     12          6           0       -1.914682   -0.547548    0.017518
     13          6           0       -0.492814   -0.490669    0.579622
     14          6           0        0.539302   -0.550871   -0.535710
     15          8           0        0.185177   -0.796316   -1.728612
     16          8           0        1.866715   -0.510291   -0.129851
     17          7           0       -7.111723    2.617776    0.365694
     18          6           0       -6.112192    3.368726    0.868341
     19          6           0       -6.470814    4.751361    0.914777
     20          6           0       -7.707754    4.797753    0.394489
     21          6           0       -8.181316    3.448895    0.095641
     22          6           0       -5.624794    5.864321    1.254596
     23          6           0       -8.582074    5.969973    0.284975
     24          6           0       -8.159034    7.126454   -0.156391
     25          7           0       -9.118975    0.753152   -0.472014
     26          6           0       -9.846532    1.815042   -0.518988
     27          6           0      -11.168398    1.458253   -1.019152
     28          6           0      -11.204971    0.145791   -1.172816
     29          6           0       -9.846622   -0.370511   -0.884630
     30          6           0      -12.307678    2.488204   -1.271625
     31          6           0      -12.333029   -0.702593   -1.791570
     32          6           0      -12.303385   -0.914086   -3.202478
     33          7           0       -7.205082   -1.317522   -0.178956
     34          6           0       -8.340271   -2.185573   -0.482341
     35          6           0       -7.855735   -3.571987   -0.471707
     36          6           0       -6.571121   -3.622605   -0.094090
     37          6           0       -6.204059   -2.194303    0.043049
     38          6           0       -8.655961   -4.848918   -0.939046
     39          6           0       -5.352393   -4.389354    0.072550
     40          8           0       -5.285073   -5.598316   -0.103627
     41          6           0       -4.238084   -3.301078    0.460759
     42          6           0       -3.551825   -3.715033    1.773873
     43          8           0       -3.725324   -3.176414    2.816871
     44          8           0       -2.772357   -4.791393    1.585227
     45          6           0       -2.177719   -5.349652    2.804182
     46          6           0        2.894120   -0.634257   -1.174209
     47          6           0        4.087237   -0.397373   -0.378612
     48          6           0        5.127915    0.363186   -0.781604
     49          6           0        5.103839    1.160192   -2.062153
     50          6           0        6.394324    0.367183   -0.004676
     51          6           0        7.608005   -0.182016   -0.793087
     52          6           0        8.910780   -0.188022   -0.043106
     53          6           0       10.213984   -0.563574   -0.906885
     54          6           0       10.164514   -1.965524   -1.460441
     55          6           0       11.423882   -0.313320   -0.039945
     56          6           0       12.714574   -0.469137   -0.723137
     57          6           0       13.931783   -0.120019    0.137625
     58          6           0       15.328158   -0.240097   -0.497404
     59          6           0       15.666725   -1.718477   -0.767989
     60          6           0       16.394812    0.420674    0.335741
     61          6           0       17.890567    0.533956   -0.189908
     62          6           0       18.896789    1.355771    0.694680
     63          6           0       20.221140    1.401789    0.171348
     64          6           0       20.396287    2.152037   -1.122149
     65          6           0       21.255834    1.905616    1.116261
     66          1           0       -4.172518    3.503616    1.510047
     67          1           0      -10.161268    4.005654   -0.361389
     68          1           0      -10.334444   -2.294418   -1.310489
     69          1           0       -2.498508   -1.169904    2.107347
     70          1           0       -2.198135    1.715596    1.256924
     71          1           0       -1.721021    0.629382    3.735297
     72          1           0       -2.951803    2.321259    3.642667
     73          1           0       -3.593247    0.584726    3.681997
     74          1           0       -1.980442   -1.514781   -0.745865
     75          1           0       -1.938764    0.244459   -0.917455
     76          1           0       -0.354549    0.526040    1.122008
     77          1           0        0.029286   -1.235780    1.310253
     78          1           0       -4.907335    6.161609    0.464592
     79          1           0       -5.954523    6.924938    1.648374
     80          1           0       -5.022119    5.631017    2.211214
     81          1           0       -9.795151    5.908737    0.246357
     82          1           0       -8.712642    8.160268   -0.215343
     83          1           0       -7.187193    7.297716   -0.352571
     84          1           0      -12.108991    3.123721   -2.030507
     85          1           0      -13.257427    1.881975   -1.671978
     86          1           0      -12.770662    3.190070   -0.405028
     87          1           0      -12.429726   -1.697317   -1.092061
     88          1           0      -13.279697   -0.284434   -1.706415
     89          1           0      -13.131561   -1.640575   -3.792728
     90          1           0      -12.171469    0.023786   -3.596909
     91          1           0      -11.428541   -1.505776   -3.594336
     92          1           0       -9.000949   -4.818504   -2.000559
     93          1           0       -8.148800   -5.860215   -1.114156
     94          1           0       -9.629134   -4.805346   -0.249514
     95          1           0       -3.477045   -3.222706   -0.348977
     96          1           0       -1.732726   -4.493752    3.402191
     97          1           0       -2.931787   -5.600079    3.379888
     98          1           0       -1.407960   -6.178021    2.617159
     99          1           0        2.906430   -1.754404   -1.577602
    100          1           0        2.675587    0.077444   -1.824556
    101          1           0        4.103563   -0.936471    0.445493
    102          1           0        4.101551    1.608850   -2.398806
    103          1           0        5.581264    2.179618   -1.799622
    104          1           0        5.569298    0.678096   -2.958102
    105          1           0        6.782850    1.435656    0.165872
    106          1           0        6.068893   -0.069090    1.087349
    107          1           0        7.401346   -1.205383   -0.991243
    108          1           0        7.595418    0.133555   -1.814567
    109          1           0        9.256958    0.647829    0.622299
    110          1           0        8.825414   -1.015958    0.650300
    111          1           0       10.094672    0.247056   -1.694265
    112          1           0        9.378215   -2.094644   -2.329787
    113          1           0       11.218760   -2.022023   -1.790168
    114          1           0        9.785469   -2.767347   -0.718039
    115          1           0       11.347876    0.644869    0.360347
    116          1           0       11.220882   -1.094304    0.885388
    117          1           0       12.684123   -1.703284   -0.930444
    118          1           0       12.976025   -0.012701   -1.788965
    119          1           0       13.790323    0.856657    0.591611
    120          1           0       13.970466   -0.663703    1.156285
    121          1           0       15.418236    0.433758   -1.402453
    122          1           0       15.977346   -2.061162    0.382271
    123          1           0       14.982593   -2.420665   -1.063989
    124          1           0       16.548946   -1.729946   -1.136674
    125          1           0       16.152946    1.444477    0.600469
    126          1           0       16.296902   -0.134651    1.387581
    127          1           0       18.398025   -0.330373   -0.353380
    128          1           0       17.762814    1.070144   -1.194786
    129          1           0       18.463953    2.436288    0.919317
    130          1           0       18.737650    0.850123    1.737928
    131          1           0       20.460860    0.427636   -0.233349
    132          1           0       20.113619    3.263679   -1.195006
    133          1           0       21.446078    2.213470   -1.392441
    134          1           0       20.026309    1.784189   -1.938169
    135          1           0       21.196546    1.211215    2.128030
    136          1           0       22.354363    1.886838    0.806943
    137          1           0       20.944808    2.902254    1.347186
 ---------------------------------------------------------------------

 SCF Done:  E(RCAM-B3LYP) =  -2932.59595543     A.U. after   18 cycles

 Excitation energies and oscillator strengths:

 Excited State   1:      Singlet-A      2.0254 eV  612.13 nm  f=0.2106  <S**2>=0.000
     240 -> 243       -0.28209
     241 -> 242        0.64196
 This state for optimization and/or second-order correction.
 Total Energy, E(TD-HF/TD-KS) =  -2932.52152175
 Copying the excited state density for this state as the 1-particle RhoCI density.

 The electronic state is 1-A.
 Alpha  occ. eigenvalues --  -46.83499 -19.26380 -19.26071 -19.21328 -19.20693
 Alpha  occ. eigenvalues --  -19.20656 -14.42760 -14.39705 -14.39107 -14.38999
 Alpha  occ. eigenvalues --  -10.39615 -10.39322 -10.35558 -10.31930 -10.31863
 Alpha  occ. eigenvalues --  -10.31421 -10.31367 -10.29859 -10.29841 -10.29544
 Alpha  occ. eigenvalues --  -10.29414 -10.29404 -10.29324 -10.28747 -10.28704
 Alpha  occ. eigenvalues --  -10.28570 -10.28442 -10.28385 -10.28335 -10.27661
 Alpha  occ. eigenvalues --  -10.27576 -10.27567 -10.27539 -10.27432 -10.27392
 Alpha  occ. eigenvalues --  -10.27269 -10.27120 -10.26890 -10.26679 -10.26476
 Alpha  occ. eigenvalues --  -10.26475 -10.26419 -10.26349 -10.26335 -10.26262
 Alpha  occ. eigenvalues --  -10.26194 -10.26102 -10.26004 -10.25908 -10.25806
 Alpha  occ. eigenvalues --  -10.25714 -10.25658 -10.25614 -10.25609 -10.25517
 Alpha  occ. eigenvalues --  -10.25486 -10.25356 -10.25343 -10.25331 -10.25240
 Alpha  occ. eigenvalues --  -10.25100 -10.24916 -10.24547 -10.23647 -10.23178
 Alpha  occ. eigenvalues --   -3.12762  -1.87453  -1.86995  -1.86965  -1.18838
 Alpha  occ. eigenvalues --   -1.15664  -1.10755  -1.10224  -1.06870  -1.04813
 Alpha  occ. eigenvalues --   -1.03789  -1.03451  -1.02053  -0.93393  -0.91796
 Alpha  occ. eigenvalues --   -0.91493  -0.90851  -0.90058  -0.89572  -0.89252
 Alpha  occ. eigenvalues --   -0.88452  -0.88327  -0.87236  -0.86973  -0.86318
 Alpha  occ. eigenvalues --   -0.85112  -0.83850  -0.83762  -0.83543  -0.83011
 Alpha  occ. eigenvalues --   -0.81873  -0.81616  -0.80483  -0.79980  -0.77650
 Alpha  occ. eigenvalues --   -0.77262  -0.77002  -0.76679  -0.76176  -0.76092
 Alpha  occ. eigenvalues --   -0.75948  -0.74944  -0.74687  -0.73193  -0.72298
 Alpha  occ. eigenvalues --   -0.71829  -0.70280  -0.69089  -0.68929  -0.68481
 Alpha  occ. eigenvalues --   -0.67327  -0.66708  -0.65316  -0.64658  -0.64502
 Alpha  occ. eigenvalues --   -0.64245  -0.63518  -0.63379  -0.62560  -0.62403
 Alpha  occ. eigenvalues --   -0.61655  -0.60725  -0.60210  -0.59813  -0.59456
 Alpha  occ. eigenvalues --   -0.59129  -0.58181  -0.57841  -0.57358  -0.55930
 Alpha  occ. eigenvalues --   -0.55868  -0.55713  -0.55488  -0.55110  -0.54472
 Alpha  occ. eigenvalues --   -0.54307  -0.54141  -0.53807  -0.53677  -0.52880
 Alpha  occ. eigenvalues --   -0.52740  -0.52429  -0.52317  -0.52043  -0.51697
 Alpha  occ. eigenvalues --   -0.51344  -0.51206  -0.51011  -0.50978  -0.50896
 Alpha  occ. eigenvalues --   -0.50736  -0.50422  -0.50064  -0.49914  -0.49633
 Alpha  occ. eigenvalues --   -0.49443  -0.49377  -0.49177  -0.48912  -0.48653
 Alpha  occ. eigenvalues --   -0.48503  -0.47939  -0.47846  -0.47651  -0.47537
 Alpha  occ. eigenvalues --   -0.46723  -0.46428  -0.46189  -0.46007  -0.45916
 Alpha  occ. eigenvalues --   -0.45739  -0.45681  -0.45470  -0.45130  -0.44753
 Alpha  occ. eigenvalues --   -0.44552  -0.44505  -0.44475  -0.44225  -0.44140
 Alpha  occ. eigenvalues --   -0.43989  -0.43684  -0.43339  -0.43069  -0.42916
 Alpha  occ. eigenvalues --   -0.42762  -0.42491  -0.42310  -0.42004  -0.41988
 Alpha  occ. eigenvalues --   -0.41961  -0.41815  -0.41561  -0.41509  -0.41005
 Alpha  occ. eigenvalues --   -0.40904  -0.40745  -0.40654  -0.40353  -0.40151
 Alpha  occ. eigenvalues --   -0.39756  -0.39556  -0.39271  -0.39110  -0.38993
 Alpha  occ. eigenvalues --   -0.38735  -0.38447  -0.38239  -0.37775  -0.37629
 Alpha  occ. eigenvalues --   -0.37190  -0.37067  -0.36879  -0.36787  -0.36694
 Alpha  occ. eigenvalues --   -0.36367  -0.36320  -0.35881  -0.35851  -0.35656
 Alpha  occ. eigenvalues --   -0.35616  -0.35148  -0.35142  -0.34454  -0.33638
 Alpha  occ. eigenvalues --   -0.33396  -0.32968  -0.32589  -0.30978  -0.30137
 Alpha  occ. eigenvalues --   -0.29900  -0.29516  -0.29018  -0.27991  -0.23254
 Alpha  occ. eigenvalues --   -0.20519
 Alpha virt. eigenvalues --   -0.05739  -0.03323   0.01023   0.04471   0.05123
 Alpha virt. eigenvalues --    0.05918   0.05943   0.06606   0.06939   0.07408
 Alpha virt. eigenvalues --    0.08236   0.10558   0.11224   0.11268   0.11715

 Mulliken charges:
               1
     1  Mg   0.819190
     2  C    0.089953
     3  C   -0.148132
     4  C   -0.161331
     5  C   -0.160085
     6  N   -0.598900
     7  C    0.303140
     8  C   -0.169974
     9  C   -0.155052
    10  C    0.317206
    11  C   -0.282046
    12  C   -0.179887
    13  C   -0.246280
    14  C    0.598167
    15  O   -0.497003
    16  O   -0.509646
    17  N   -0.733226
    18  C    0.318117
    19  C    0.083236
    20  C   -0.014597
    21  C    0.306563
    22  C   -0.409309
    23  C   -0.082980
    24  C   -0.231542
    25  N   -0.716128
    26  C    0.342601
    27  C    0.019589
    28  C    0.001610
    29  C    0.276141
    30  C   -0.369305
    31  C   -0.226748
    32  C   -0.289679
    33  N   -0.726639
    34  C    0.264927
    35  C   -0.026899
    36  C    0.081178
    37  C    0.267619
    38  C   -0.365546
    39  C    0.365263
    40  O   -0.454471
    41  C   -0.354634
    42  C    0.624713
    43  O   -0.458606
    44  O   -0.461395
    45  C   -0.087012
    46  C    0.048970
    47  C   -0.103051
    48  C    0.121450
    49  C   -0.379708
    50  C   -0.218167
    51  C   -0.188089
    52  C   -0.182814
    53  C   -0.064810
    54  C   -0.298361
    55  C   -0.163176
    56  C   -0.163599
    57  C   -0.171762
    58  C   -0.063310
    59  C   -0.281079
    60  C   -0.181275
    61  C   -0.188539
    62  C   -0.155069
    63  C   -0.047290
    64  C   -0.313968
    65  C   -0.291857
    66  H    0.048906
    67  H    0.090068
    68  H    0.109603
    69  H    0.125167
    70  H    0.107055
    71  H    0.088970
    72  H    0.097830
    73  H    0.141476
    74  H    0.113184
    75  H    0.123290
    76  H    0.126614
    77  H    0.135712
    78  H    0.130337
    79  H    0.118702
    80  H    0.100837
    81  H    0.086178
    82  H    0.091901
    83  H    0.103512
    84  H    0.137307
    85  H    0.088724
    86  H    0.100748
    87  H    0.072087
    88  H    0.117194
    89  H    0.081072
    90  H    0.121023
    91  H    0.095792
    92  H    0.118630
    93  H    0.144346
    94  H    0.107953
    95  H    0.166625
    96  H    0.120062
    97  H    0.148157
    98  H    0.130685
    99  H    0.118487
   100  H    0.124306
   101  H    0.087332
   102  H    0.111189
   103  H    0.105460
   104  H    0.127246
   105  H    0.090715
   106  H    0.083638
   107  H    0.105211
   108  H    0.102524
   109  H    0.081069
   110  H    0.092228
   111  H    0.083317
   112  H    0.088303
   113  H    0.107929
   114  H    0.095675
   115  H    0.100485
   116  H    0.075976
   117  H    0.069503
   118  H    0.093038
   119  H    0.087815
   120  H    0.078408
   121  H    0.073325
   122  H    0.057517
   123  H    0.117676
   124  H    0.114362
   125  H    0.097487
   126  H    0.059531
   127  H    0.106289
   128  H    0.084948
   129  H    0.068784
   130  H    0.083819
   131  H    0.092063
   132  H    0.079860
   133  H    0.097259
   134  H    0.112125
   135  H    0.068391
   136  H    0.099576
   137  H    0.110731
 Sum of Mulliken charges =   0.00000

 Dipole moment (field-independent basis, Debye):
    X=              3.5248    Y=              3.7973    Z=              0.5906  Tot=              5.2147
 Quadrupole moment (field-independent basis, Debye-Ang):
   XX=           -358.4394   YY=           -391.1160   ZZ=           -397.8401
   XY=            -18.0213   XZ=             -0.9493   YZ=             -4.6577

 Normal termination of Gaussian 09 at Sat Jun 29 10:29:33 2019.
