 Gaussian 09, Revision D.01,
 Gaussian 09:  ES64L-G09RevD.01 24-Apr-2013

 ---------------------------------------------------
 #n CAM-B3LYP/6-31G(d,p) Opt Freq=savenormalmodes td
 ---------------------------------------------------

 -------------------
 lutein-s1-geom-freq
 -------------------
 Symbolic Z-matrix:
 Charge =  0 Multiplicity = 1

 SCF Done:  E(RCAM-B3LYP) =  -1707.37801049     A.U. after   13 cycles
 SCF Done:  E(RCAM-B3LYP) =  -1707.37178115     A.U. after   13 cycles
 SCF Done:  E(RCAM-B3LYP) =  -1707.36570003     A.U. after   14 cycles
 SCF Done:  E(RCAM-B3LYP) =  -1707.36490147     A.U. after   12 cycles
 SCF Done:  E(RCAM-B3LYP) =  -1707.36488628     A.U. after   11 cycles
 SCF Done:  E(RCAM-B3LYP) =  -1707.36410811     A.U. after   12 cycles
 SCF Done:  E(RCAM-B3LYP) =  -1707.36454399     A.U. after   11 cycles
 SCF Done:  E(RCAM-B3LYP) =  -1707.36502496     A.U. after   11 cycles
 SCF Done:  E(RCAM-B3LYP) =  -1707.36479844     A.U. after   11 cycles
 SCF Done:  E(RCAM-B3LYP) =  -1707.36467815     A.U. after   10 cycles
 Optimization completed.
    -- Stationary point found.
 Normal termination of Gaussian 09 at Sat Apr 27 01:15:13 2019.

 ----------------------------------------------------------------------
 #N Geom=AllCheck Guess=TCheck SCRF=Check GenChk RCAM-B3LYP TD(FC)/6-31
 G(d,p) Freq
 ----------------------------------------------------------------------

 Structure from the checkpoint file:  "lutein-s1-geom-freq.chk"
 -------------------
 lutein-s1-geom-freq
 -------------------
 Charge =  0 Multiplicity = 1

                         Standard orientation:
 ---------------------------------------------------------------------
 Center     Atomic      Atomic             Coordinates (Angstroms)
 Number     Number       Type             X           Y           Z
 ---------------------------------------------------------------------
      1          8           0      -14.134453   -1.961145    0.584560
      2          8           0       14.802166    0.928901    0.185698
      3          6           0      -11.774997    0.114219    1.285093
      4          6           0      -10.982148    0.318753   -0.039149
      5          6           0      -12.004539   -1.390505    1.498636
      6          6           0      -12.727661   -2.090483    0.353107
      7          6           0      -11.601574   -0.455095   -1.195072
      8          6           0       11.097768    1.012183    1.067969
      9          6           0      -10.987600    0.675777    2.472611
     10          6           0      -13.109083    0.869395    1.193315
     11          6           0       12.521175    1.531017    0.801263
     12          6           0      -12.349204   -1.540191   -0.993919
     13          6           0       13.492136    0.431650    0.413707
     14          6           0       10.678577   -0.028562    0.010371
     15          6           0       -9.525424   -0.054663    0.047394
     16          6           0       13.023217   -0.194331   -0.880876
     17          6           0       11.552369   -0.527336   -0.895907
     18          6           0       10.160281    2.233720    1.039339
     19          6           0       11.019844    0.373969    2.467015
     20          6           0      -11.286320    0.054417   -2.572025
     21          6           0       -8.509337    0.797308   -0.182119
     22          6           0        9.274496   -0.436694    0.070317
     23          6           0       11.176480   -1.418246   -2.049243
     24          6           0       -7.097407    0.485239   -0.143890
     25          6           0        8.803134   -1.700041   -0.082158
     26          6           0       -6.689042   -0.924376    0.170911
     27          6           0        7.424008   -2.122955   -0.045781
     28          6           0       -6.201182    1.493385   -0.395760
     29          6           0        7.160561   -3.593695    0.152763
     30          6           0        6.383665   -1.233397   -0.184999
     31          6           0       -4.789017    1.423321   -0.415194
     32          6           0        5.008768   -1.542155   -0.104430
     33          6           0       -3.994917    2.521567   -0.681907
     34          6           0       -2.584253    2.581594   -0.737415
     35          6           0        4.015037   -0.599876   -0.277361
     36          6           0        2.624595   -0.823786   -0.208190
     37          6           0       -1.943757    3.911547   -1.032690
     38          6           0       -1.777439    1.456454   -0.531072
     39          6           0        1.767757    0.263721   -0.396557
     40          6           0        2.113424   -2.210782    0.070472
     41          6           0       -0.385648    1.431618   -0.566070
     42          6           0        0.374888    0.280383   -0.359820
     43          1           0      -11.029968    1.387825   -0.286863
     44          1           0      -12.582760   -1.558092    2.412825
     45          1           0      -11.034804   -1.878956    1.646682
     46          1           0      -12.468400   -3.160786    0.381566
     47          1           0      -10.042105    0.148764    2.623369
     48          1           0      -10.754233    1.734848    2.322887
     49          1           0      -11.575824    0.589553    3.391481
     50          1           0      -13.712790    0.535366    0.350143
     51          1           0      -13.700971    0.707009    2.098604
     52          1           0      -12.929928    1.945616    1.096685
     53          1           0       12.506944    2.259677   -0.018006
     54          1           0       12.878885    2.062766    1.692619
     55          1           0      -12.748746   -2.073471   -1.857325
     56          1           0       13.514363   -0.339451    1.198534
     57          1           0       -9.312853   -1.096420    0.276800
     58          1           0       13.604519   -1.100010   -1.091935
     59          1           0       13.257326    0.502621   -1.698203
     60          1           0        9.158998    2.002424    1.409157
     61          1           0       10.069659    2.639345    0.027595
     62          1           0       10.564604    3.021581    1.682512
     63          1           0       11.718619   -0.460255    2.570628
     64          1           0       10.016702   -0.014940    2.660147
     65          1           0       11.252658    1.112649    3.241220
     66          1           0      -10.204777    0.141264   -2.715943
     67          1           0      -11.706633    1.056182   -2.718048
     68          1           0      -11.687963   -0.600138   -3.348619
     69          1           0      -14.594827   -2.254428   -0.210783
     70          1           0        8.559467    0.335968    0.337838
     71          1           0       -8.756180    1.832098   -0.419164
     72          1           0       11.468589   -2.459611   -1.866616
     73          1           0       10.109285   -1.401969   -2.266598
     74          1           0       11.721098   -1.101104   -2.946028
     75          1           0       15.119660    1.319547    1.008195
     76          1           0        9.532744   -2.497197   -0.202924
     77          1           0       -5.608507   -1.060448    0.171772
     78          1           0       -7.063986   -1.227050    1.155081
     79          1           0       -7.113597   -1.623989   -0.557655
     80          1           0       -6.624915    2.474414   -0.609013
     81          1           0        6.770096   -3.799157    1.156894
     82          1           0        6.425670   -3.977995   -0.561283
     83          1           0        8.076416   -4.177019    0.037312
     84          1           0        6.629203   -0.194585   -0.394083
     85          1           0       -4.316719    0.468287   -0.210914
     86          1           0        4.724085   -2.567528    0.110862
     87          1           0       -4.518364    3.457222   -0.872075
     88          1           0        4.331701    0.421681   -0.483722
     89          1           0       -1.325718    3.868363   -1.936768
     90          1           0       -1.286721    4.231290   -0.215659
     91          1           0       -2.694980    4.689503   -1.179066
     92          1           0       -2.269199    0.508930   -0.327111
     93          1           0        2.251127    1.219709   -0.594836
     94          1           0        2.415089   -2.547190    1.068383
     95          1           0        1.027775   -2.275735    0.014122
     96          1           0        2.523992   -2.928190   -0.647116
     97          1           0        0.151976    2.355772   -0.765351
     98          1           0       -0.166262   -0.640998   -0.160347
 ---------------------------------------------------------------------

 SCF Done:  E(RCAM-B3LYP) =  -1707.36432991     A.U. after    6 cycles
 SCF Done:  E(RCAM-B3LYP) =  -1707.36433001     A.U. after    7 cycles
 SCF Done:  E(RCAM-B3LYP) =  -1707.36433019     A.U. after    6 cycles
 SCF Done:  E(RCAM-B3LYP) =  -1707.36432994     A.U. after    7 cycles
 SCF Done:  E(RCAM-B3LYP) =  -1707.36432979     A.U. after    6 cycles
 SCF Done:  E(RCAM-B3LYP) =  -1707.36433076     A.U. after    7 cycles
 SCF Done:  E(RCAM-B3LYP) =  -1707.36432981     A.U. after    6 cycles
 SCF Done:  E(RCAM-B3LYP) =  -1707.36432996     A.U. after    7 cycles
 SCF Done:  E(RCAM-B3LYP) =  -1707.36433018     A.U. after    6 cycles
 SCF Done:  E(RCAM-B3LYP) =  -1707.36432994     A.U. after    6 cycles

 Excitation energies and oscillator strengths:

 Excited state symmetry could not be determined.
 Excited State   1:      Singlet-?Sym    2.0974 eV  591.15 nm  f=3.1681  <S**2>=0.000
     155 ->158        -0.14746
     156 ->157         0.69372
 This state for optimization and/or second-order correction.
 Total Energy, E(TD-HF/TD-KS) =  -1707.28725368
 Copying the excited state density for this state as the 1-particle RhoCI density.

 Excited state symmetry could not be determined.
 Excited State   2:      Singlet-?Sym    3.1870 eV  389.03 nm  f=0.0040  <S**2>=0.000
     154 ->158        -0.14189
     155 ->157         0.59481
     156 ->158         0.31527

 Excited state symmetry could not be determined.
 Excited State   3:      Singlet-?Sym    3.4279 eV  361.69 nm  f=0.0479  <S**2>=0.000
     155 ->157        -0.33341
     155 ->159        -0.13167
     156 ->158         0.60245

 Alpha  occ. eigenvalues --  -19.20907 -19.20733 -10.30271 -10.29863 -10.27104
 Alpha  occ. eigenvalues --  -10.27101 -10.27094 -10.27061 -10.26706 -10.26575
 Alpha  occ. eigenvalues --  -10.26278 -10.26250 -10.26227 -10.26169 -10.26156
 Alpha  occ. eigenvalues --  -10.26137 -10.26119 -10.25945 -10.25859 -10.25850
 Alpha  occ. eigenvalues --  -10.25841 -10.25754 -10.25676 -10.25601 -10.25595
 Alpha  occ. eigenvalues --  -10.25518 -10.25481 -10.25459 -10.25401 -10.25367
 Alpha  occ. eigenvalues --  -10.25242 -10.25184 -10.25008 -10.24782 -10.24689
 Alpha  occ. eigenvalues --  -10.24571 -10.24475 -10.24466 -10.24369 -10.24196
 Alpha  occ. eigenvalues --  -10.23557 -10.22844  -1.09348  -1.08957  -0.93501
 Alpha  occ. eigenvalues --   -0.93447  -0.92095  -0.91561  -0.90549  -0.89881
 Alpha  occ. eigenvalues --   -0.87221  -0.86913  -0.86674  -0.85435  -0.84656
 Alpha  occ. eigenvalues --   -0.83025  -0.82176  -0.80560  -0.80078  -0.78639
 Alpha  occ. eigenvalues --   -0.76953  -0.76397  -0.76174  -0.76071  -0.75917
 Alpha  occ. eigenvalues --   -0.75443  -0.75227  -0.74970  -0.72890  -0.70490
 Alpha  occ. eigenvalues --   -0.68985  -0.67721  -0.66504  -0.65123  -0.63756
 Alpha  occ. eigenvalues --   -0.63213  -0.62584  -0.62452  -0.60813  -0.60090
 Alpha  occ. eigenvalues --   -0.59671  -0.58747  -0.58354  -0.57747  -0.56392
 Alpha  occ. eigenvalues --   -0.55740  -0.55065  -0.54818  -0.54191  -0.53739
 Alpha  occ. eigenvalues --   -0.53237  -0.52875  -0.52722  -0.51983  -0.50924
 Alpha  occ. eigenvalues --   -0.50272  -0.50091  -0.49467  -0.48903  -0.48834
 Alpha  occ. eigenvalues --   -0.48710  -0.48657  -0.48474  -0.48415  -0.48298
 Alpha  occ. eigenvalues --   -0.48085  -0.47658  -0.46906  -0.46720  -0.46336
 Alpha  occ. eigenvalues --   -0.46030  -0.45752  -0.45437  -0.45348  -0.45095
 Alpha  occ. eigenvalues --   -0.44867  -0.44625  -0.44168  -0.43945  -0.43823
 Alpha  occ. eigenvalues --   -0.43616  -0.43471  -0.43054  -0.42568  -0.42315
 Alpha  occ. eigenvalues --   -0.42179  -0.41851  -0.41810  -0.41369  -0.41044
 Alpha  occ. eigenvalues --   -0.40977  -0.40533  -0.40284  -0.40156  -0.39995
 Alpha  occ. eigenvalues --   -0.39950  -0.39557  -0.39326  -0.39220  -0.38881
 Alpha  occ. eigenvalues --   -0.38316  -0.37227  -0.36973  -0.36934  -0.36362
 Alpha  occ. eigenvalues --   -0.36005  -0.35123  -0.34149  -0.32237  -0.32101
 Alpha  occ. eigenvalues --   -0.31820  -0.29812  -0.29132  -0.26819  -0.23506
 Alpha  occ. eigenvalues --   -0.18974
 Alpha virt. eigenvalues --   -0.05892  -0.00796   0.03157   0.06240   0.07769
 Alpha virt. eigenvalues --    0.09838   0.12158   0.12835   0.13039   0.13452
 Alpha virt. eigenvalues --    0.14050   0.14128   0.14589   0.14625   0.15153

 Mulliken charges:
               1
     1  O   -0.546065
     2  O   -0.561712
     3  C    0.016822
     4  C   -0.140226
     5  C   -0.180338
     6  C    0.147068
     7  C    0.129883
     8  C   -0.023353
     9  C   -0.299070
    10  C   -0.291202
    11  C   -0.188493
    12  C   -0.154326
    13  C    0.166283
    14  C    0.074819
    15  C   -0.082469
    16  C   -0.223164
    17  C    0.042467
    18  C   -0.310434
    19  C   -0.299173
    20  C   -0.363056
    21  C   -0.093523
    22  C   -0.118891
    23  C   -0.370351
    24  C    0.117885
    25  C   -0.112149
    26  C   -0.380093
    27  C    0.089646
    28  C   -0.128870
    29  C   -0.381780
    30  C   -0.111692
    31  C   -0.064498
    32  C   -0.089109
    33  C   -0.134005
    34  C    0.102780
    35  C   -0.116577
    36  C    0.115854
    37  C   -0.382860
    38  C   -0.116549
    39  C   -0.125820
    40  C   -0.380690
    41  C   -0.079562
    42  C   -0.084631
    43  H    0.083070
    44  H    0.109019
    45  H    0.087964
    46  H    0.077603
    47  H    0.098814
    48  H    0.095000
    49  H    0.096319
    50  H    0.113779
    51  H    0.100249
    52  H    0.083158
    53  H    0.100701
    54  H    0.073873
    55  H    0.067661
    56  H    0.075950
    57  H    0.084474
    58  H    0.109450
    59  H    0.121408
    60  H    0.101756
    61  H    0.107125
    62  H    0.099151
    63  H    0.101120
    64  H    0.108820
    65  H    0.094404
    66  H    0.123054
    67  H    0.114840
    68  H    0.106389
    69  H    0.300760
    70  H    0.083836
    71  H    0.075205
    72  H    0.114084
    73  H    0.125155
    74  H    0.106817
    75  H    0.302835
    76  H    0.083003
    77  H    0.107539
    78  H    0.123282
    79  H    0.123662
    80  H    0.076159
    81  H    0.126375
    82  H    0.120090
    83  H    0.108126
    84  H    0.078811
    85  H    0.079765
    86  H    0.080514
    87  H    0.076458
    88  H    0.077172
    89  H    0.123488
    90  H    0.123789
    91  H    0.108191
    92  H    0.075103
    93  H    0.077873
    94  H    0.126284
    95  H    0.108846
    96  H    0.123467
    97  H    0.081245
    98  H    0.078139
 Sum of Mulliken charges =   0.00000

 Dipole moment (field-independent basis, Debye):
    X=              0.9434    Y=             -0.7434    Z=             -0.1001  Tot=              1.2053
 Quadrupole moment (field-independent basis, Debye-Ang):
   XX=           -277.1905   YY=           -241.9582   ZZ=           -261.1463
   XY=              5.4220   XZ=             38.0511   YZ=              1.8612
